# Solver information
# Time            	H2_solver         	H2_initial        	H2_final          	H2_iters          	H2_converged      	U_solver          	Ux_initial        	Ux_final          	Ux_iters          	Uy_initial        	Uy_final          	Uy_iters          	Uz_initial        	Uz_final          	Uz_iters          	U_converged       	k_solver          	k_initial         	k_final           	k_iters           	k_converged       	omega_solver      	omega_initial     	omega_final       	omega_iters       	omega_converged   	p_rgh_solver      	p_rgh_initial     	p_rgh_final       	p_rgh_iters       	p_rgh_converged   
1.200048e-05      	DILUPBiCGStab	1.0000000000e+00	8.9922118140e-05	1	true	smoothSolver	1.0000000000e+00	8.0840280630e-08	2	1.0000000000e+00	2.7267324580e-12	4	1.0000000000e+00	3.0951974680e-08	2	false	DILUPBiCGStab	1.0000000000e+00	9.9310168280e-08	1	true	DILUPBiCGStab	8.6799272180e-04	8.6167965200e-11	1	true	DICPCG	7.2107916240e-01	1.1022390540e-03	3	true
2.6401747e-05     	DILUPBiCGStab	8.8326949040e-02	1.0336990960e-05	1	true	smoothSolver	3.5509588780e-01	1.0141731070e-08	2	1.2377742230e-01	1.2614535880e-08	2	1.7017039450e-01	4.7757683140e-09	2	false	DILUPBiCGStab	2.8879875860e-01	2.7883668760e-08	1	true	DILUPBiCGStab	2.4833365830e-04	4.3713393910e-08	1	true	DICPCG	5.0947293330e-01	1.9029586540e-03	3	true
4.3683268e-05     	DILUPBiCGStab	5.4575170970e-02	1.1850949160e-05	1	true	smoothSolver	2.7158462830e-01	4.6642159040e-09	2	8.5959921900e-02	8.5022721980e-09	2	1.2727243800e-01	2.2132265200e-09	2	false	DILUPBiCGStab	1.7851060330e-01	2.4791991170e-08	1	true	DILUPBiCGStab	2.6181629440e-04	6.0405597290e-08	1	true	DICPCG	3.7658905660e-01	2.9663625880e-03	3	true
6.4421093e-05     	DILUPBiCGStab	4.2165062960e-02	1.7972479320e-05	1	true	smoothSolver	2.2170715980e-01	3.7798439660e-09	2	6.8143137600e-02	8.4056373970e-09	2	1.0555351440e-01	1.6582468160e-09	2	false	DILUPBiCGStab	1.3382846150e-01	2.8278734380e-08	1	true	DILUPBiCGStab	2.8340852070e-04	8.6655844070e-08	1	true	DICPCG	3.1260185690e-01	1.6866873450e-03	4	true
8.9305451e-05     	DILUPBiCGStab	3.5852869230e-02	3.0129699030e-05	1	true	smoothSolver	1.8593883240e-01	3.9804678020e-09	2	5.7326060270e-02	1.1501192060e-08	2	9.2091512340e-02	1.5691010890e-09	2	false	DILUPBiCGStab	1.0992039370e-01	4.0725391610e-08	1	true	DILUPBiCGStab	3.1226111030e-04	1.1983347700e-10	1	true	DICPCG	3.0526740100e-01	2.7700730820e-03	4	true
0.00011916519     	DILUPBiCGStab	3.1795735410e-02	5.3393667360e-05	1	true	smoothSolver	1.5698851490e-01	5.8983591010e-09	2	5.0201580080e-02	2.1689454600e-08	2	8.2717258440e-02	2.0576294140e-09	2	false	DILUPBiCGStab	9.5262512300e-02	7.8831424210e-08	1	true	DILUPBiCGStab	3.4963299350e-04	1.7978607690e-10	1	true	DICPCG	3.5903839340e-01	2.2020680850e-03	5	true
0.00015499046     	DILUPBiCGStab	2.8732058280e-02	9.4558872590e-05	1	true	smoothSolver	1.3071746010e-01	1.1152676000e-08	2	4.5548137180e-02	4.4820159430e-08	2	7.5580888650e-02	3.3915200430e-09	2	false	DILUPBiCGStab	8.4548735400e-02	6.3726001710e-10	2	true	DILUPBiCGStab	3.9843793650e-04	2.8737269200e-10	1	true	DICPCG	4.1022063620e-01	2.0741240920e-03	6	true
0.00019797152     	DILUPBiCGStab	2.6202222460e-02	1.6148682030e-04	1	true	smoothSolver	1.0513889000e-01	2.4012047140e-08	2	4.2740880300e-02	8.7736384140e-08	2	7.0113843110e-02	6.7793039430e-09	2	false	DILUPBiCGStab	7.5384165780e-02	1.4787015260e-09	2	true	DILUPBiCGStab	4.6318403610e-04	6.4056251670e-10	1	true	DICPCG	4.2985553290e-01	4.2836660490e-03	6	true
0.00024954879     	DILUPBiCGStab	2.4077873660e-02	2.6379187940e-04	1	true	smoothSolver	8.1396007020e-02	5.1889147270e-08	2	4.1261852120e-02	3.8015800940e-12	4	6.5576438990e-02	1.5190729610e-08	2	false	DILUPBiCGStab	6.7270079430e-02	3.3305105960e-09	2	true	DILUPBiCGStab	5.2856067300e-04	1.5729754060e-09	1	true	DICPCG	4.0230667080e-01	2.6215090400e-03	8	true
0.00031142873     	DILUPBiCGStab	2.2115897330e-02	4.0360723870e-04	1	true	smoothSolver	7.1868134200e-02	6.4934450640e-12	4	4.1066059600e-02	8.6511009120e-12	4	6.2660635980e-02	3.1531861460e-08	2	false	DILUPBiCGStab	5.8984974400e-02	6.6070943700e-09	2	true	DILUPBiCGStab	5.9088825180e-04	3.7227226530e-09	1	true	DICPCG	3.4969781940e-01	2.7390694230e-03	9	true
0.000385657       	DILUPBiCGStab	2.0259531060e-02	5.9562616290e-04	1	true	smoothSolver	9.5647597530e-02	1.9636171170e-11	4	4.3425725850e-02	2.0597222610e-11	4	6.1248164810e-02	6.2517586660e-08	2	false	DILUPBiCGStab	5.1436983100e-02	1.4416464050e-08	2	true	DILUPBiCGStab	6.6192591290e-04	7.5558576060e-09	1	true	DICPCG	2.8855221830e-01	2.1894226950e-03	11	true
0.00047475749     	DILUPBiCGStab	1.8549960730e-02	8.6159931100e-04	1	true	smoothSolver	1.3937380660e-01	7.0245080920e-11	4	4.9227376650e-02	5.6184667620e-11	4	6.1568348120e-02	1.1205252290e-11	4	false	DILUPBiCGStab	4.5608591750e-02	3.7338465710e-08	2	true	DILUPBiCGStab	7.5114651460e-04	1.4424032300e-08	1	true	DICPCG	2.8313413450e-01	2.3729402260e-03	12	true
0.00058165893     	DILUPBiCGStab	1.7069312880e-02	1.1874762760e-03	1	true	smoothSolver	2.3827774500e-01	2.7927787340e-10	4	5.5589920760e-02	1.6893133370e-10	4	6.0495577630e-02	3.0000548310e-11	4	false	DILUPBiCGStab	4.1493114560e-02	1.2843019900e-09	2	true	DILUPBiCGStab	8.7056539970e-04	2.6513945520e-08	1	true	DICPCG	3.0040887220e-01	2.6049452200e-03	14	true
0.00070994066     	DILUPBiCGStab	1.5895973040e-02	1.4861722210e-03	1	true	smoothSolver	3.3567496570e-01	1.0856177220e-09	4	6.1315346580e-02	5.5992633530e-10	4	5.6445036620e-02	9.4242740500e-11	4	false	DILUPBiCGStab	4.0214211870e-02	5.5877978610e-09	2	true	DILUPBiCGStab	1.0188190720e-03	5.7100645580e-08	1	true	DICPCG	3.3838846770e-01	2.7588587460e-03	18	true
0.00086387873     	DILUPBiCGStab	1.5042360570e-02	1.1887871150e-04	1	true	smoothSolver	2.9863325380e-01	3.3702522710e-09	4	6.5585177330e-02	1.7762568580e-09	4	4.9050137180e-02	3.3233730960e-10	4	false	DILUPBiCGStab	3.9146569840e-02	6.4854056090e-08	2	true	DILUPBiCGStab	1.1392131790e-03	2.8024848560e-09	2	true	DICPCG	4.1384991170e-01	3.4918600780e-03	20	true
0.0010484898      	DILUPBiCGStab	1.4295073490e-02	1.1710961970e-04	1	true	smoothSolver	2.0468785320e-01	8.0526166950e-09	4	6.9300407180e-02	4.9060182780e-09	4	3.9113845320e-02	8.7917405910e-10	4	false	DILUPBiCGStab	3.7031822680e-02	1.3269200120e-08	2	true	DILUPBiCGStab	1.2814003860e-03	5.6227386570e-09	2	true	DICPCG	4.8141660870e-01	3.3313423430e-03	23	true
0.0012698578      	DILUPBiCGStab	1.4076040230e-02	1.2493290530e-04	1	true	smoothSolver	1.1547201650e-01	1.7458483440e-08	4	7.0965711630e-02	1.5424107090e-08	4	2.7506681050e-02	1.7295552110e-09	4	false	DILUPBiCGStab	3.4436561230e-02	3.6052375090e-08	2	true	DILUPBiCGStab	1.4259842000e-03	1.3684504400e-08	2	true	DICPCG	4.8313237720e-01	4.4894395040e-03	25	true
0.0015352614      	DILUPBiCGStab	1.4226116210e-02	1.4991143620e-04	1	true	smoothSolver	7.3274808210e-02	4.9103514160e-08	4	7.1523363700e-02	6.0826008930e-08	4	1.7922378710e-02	7.2909444100e-09	4	false	DILUPBiCGStab	3.2547959400e-02	8.3482023200e-08	2	true	DILUPBiCGStab	1.5513865520e-03	3.4566550530e-08	2	true	DICPCG	4.2501738100e-01	4.1086314990e-03	29	true
0.0018539175      	DILUPBiCGStab	1.4703107400e-02	2.0260352570e-04	1	true	smoothSolver	1.5170628300e-01	1.2349116120e-09	6	7.2471316270e-02	7.7179441630e-10	6	4.1685241700e-02	4.1950023740e-08	4	false	DILUPBiCGStab	3.1761760940e-02	2.3269533530e-08	3	true	DILUPBiCGStab	1.6666122550e-03	5.3877148860e-08	2	true	DICPCG	3.5425097410e-01	3.4144103860e-03	34	true
0.0022299561      	DILUPBiCGStab	1.5205431660e-02	2.8315893600e-04	1	true	smoothSolver	3.6470897780e-01	1.1577453920e-08	6	7.1731697080e-02	3.3980422530e-09	6	6.9734165840e-02	1.2898593050e-09	6	false	DILUPBiCGStab	3.2107441330e-02	5.4313352930e-08	3	true	DILUPBiCGStab	1.8031205650e-03	2.0713319650e-08	2	true	DICPCG	3.1040987950e-01	2.8603766820e-03	40	true
0.0026644897      	DILUPBiCGStab	1.5653110860e-02	3.7756609770e-04	1	true	smoothSolver	4.4132565000e-01	4.2178523350e-08	6	6.9288373890e-02	1.0333672510e-08	6	9.0227505300e-02	4.3303309760e-09	6	false	DILUPBiCGStab	3.2868499550e-02	1.6068384680e-08	3	true	DILUPBiCGStab	1.9296944500e-03	3.1236973330e-08	2	true	DICPCG	3.5168252030e-01	3.4141117080e-03	42	true
0.0031585786      	DILUPBiCGStab	1.6083339780e-02	4.8189323940e-04	1	true	smoothSolver	2.8478694690e-01	5.9880261270e-08	6	6.5809166280e-02	2.4314944360e-08	6	8.9848459280e-02	7.4006050530e-09	6	false	DILUPBiCGStab	3.2685667480e-02	2.9317692990e-08	3	true	DILUPBiCGStab	1.9885885290e-03	8.0483244900e-08	2	true	DICPCG	3.9650512840e-01	3.8000967200e-03	46	true
0.0037119581      	DILUPBiCGStab	1.6461326320e-02	5.6668847180e-04	1	true	smoothSolver	1.4023110210e-01	6.2904683580e-08	6	6.2075439120e-02	4.8505409180e-08	6	6.5245341370e-02	9.0701886360e-09	6	false	DILUPBiCGStab	3.2102799180e-02	4.2899157020e-08	3	true	DILUPBiCGStab	1.9972738790e-03	5.0692454120e-09	3	true	DICPCG	3.7718669780e-01	3.6745557900e-03	52	true
0.0042717723      	DILUPBiCGStab	1.5409736340e-02	4.9414505230e-04	1	true	smoothSolver	9.7656983140e-02	3.3827727900e-09	8	5.4861128900e-02	4.9613645180e-08	6	4.4643898290e-02	1.9304481260e-08	6	false	DILUPBiCGStab	2.9445503380e-02	4.0986332020e-08	3	true	DILUPBiCGStab	1.8575039280e-03	4.4386876970e-09	3	true	DICPCG	2.9722479300e-01	2.7308893160e-03	54	true
0.0048219345      	DILUPBiCGStab	1.4148198520e-02	3.8501095910e-04	1	true	smoothSolver	2.1014860310e-01	5.5454323240e-09	8	4.8213067840e-02	4.2771635290e-08	6	5.2509695550e-02	1.9839320890e-08	6	false	DILUPBiCGStab	2.6822824620e-02	2.7463677110e-08	3	true	DILUPBiCGStab	1.7090480720e-03	5.3419093450e-08	2	true	DICPCG	2.1785705070e-01	2.1269141510e-03	54	true
0.0053720968      	DILUPBiCGStab	1.3276191400e-02	3.2751183900e-04	1	true	smoothSolver	3.0605333430e-01	6.4198013830e-09	8	4.3716248740e-02	4.0444485760e-08	6	4.9910489900e-02	1.5380024080e-08	6	false	DILUPBiCGStab	2.5197580210e-02	2.4174649420e-08	3	true	DILUPBiCGStab	1.6173029020e-03	3.8070635540e-08	2	true	DICPCG	1.8562817750e-01	1.7227494310e-03	57	true
0.005922259       	DILUPBiCGStab	1.2493353220e-02	2.8499088070e-04	1	true	smoothSolver	2.6097687660e-01	4.1117357660e-09	8	4.0066367800e-02	3.6344034250e-08	6	4.1915122300e-02	8.8912379110e-09	6	false	DILUPBiCGStab	2.3838111580e-02	3.8427581660e-08	3	true	DILUPBiCGStab	1.5407426760e-03	3.0717147550e-08	2	true	DICPCG	1.7544246490e-01	1.7387905880e-03	61	true
0.0064756575      	DILUPBiCGStab	1.1851971330e-02	2.5884364320e-04	1	true	smoothSolver	1.6278965980e-01	9.5711746050e-08	6	3.7103365770e-02	3.3193952040e-08	6	3.2998098950e-02	4.9311531070e-09	6	false	DILUPBiCGStab	2.2712693010e-02	4.8425047100e-08	3	true	DILUPBiCGStab	1.4793802960e-03	2.9436270600e-08	2	true	DICPCG	1.6493117540e-01	1.6432767660e-03	65	true
0.0070290559      	DILUPBiCGStab	1.1207928960e-02	2.3272616970e-04	1	true	smoothSolver	9.4984701970e-02	2.8923730390e-09	8	3.4362417510e-02	2.9205009080e-08	6	2.6431168440e-02	5.9581586000e-09	6	false	DILUPBiCGStab	2.1555751580e-02	4.9244355050e-08	3	true	DILUPBiCGStab	1.4152644150e-03	2.7866284990e-08	2	true	DICPCG	1.4563152500e-01	1.3876978140e-03	69	true
0.0075824544      	DILUPBiCGStab	1.0627868570e-02	2.1138864150e-04	1	true	smoothSolver	1.2194234960e-01	3.9364505540e-09	8	3.1884560590e-02	2.5788331980e-08	6	2.8236126080e-02	8.5482282270e-09	6	false	DILUPBiCGStab	2.0516585180e-02	4.1331519730e-08	3	true	DILUPBiCGStab	1.3595016850e-03	2.6701205650e-08	2	true	DICPCG	1.2472819040e-01	1.1797471710e-03	76	true
0.0081358529      	DILUPBiCGStab	1.0108105950e-02	1.9329376390e-04	1	true	smoothSolver	1.7342543310e-01	4.1737468510e-09	8	2.9644758330e-02	2.3049790040e-08	6	3.1080841470e-02	8.7850095070e-09	6	false	DILUPBiCGStab	1.9622333500e-02	2.8666641810e-08	3	true	DILUPBiCGStab	1.3136787950e-03	2.5360825330e-08	2	true	DICPCG	1.1016852320e-01	9.6024915480e-04	78	true
0.0086892514      	DILUPBiCGStab	9.6425559850e-03	1.7809138170e-04	1	true	smoothSolver	1.7459467200e-01	3.1020418470e-09	8	2.7615511650e-02	2.0813103470e-08	6	3.0872769250e-02	7.4901537250e-09	6	false	DILUPBiCGStab	1.8829207090e-02	2.0610869550e-08	3	true	DILUPBiCGStab	1.2756069960e-03	2.4778379600e-08	2	true	DICPCG	1.0194638290e-01	9.8001048900e-04	77	true
0.0092426498      	DILUPBiCGStab	9.2237956960e-03	1.6567421680e-04	1	true	smoothSolver	1.3180949940e-01	9.0502829430e-08	6	2.5870364770e-02	1.8958212720e-08	6	2.8537344100e-02	6.0647757280e-09	6	false	DILUPBiCGStab	1.8104812430e-02	1.5404941260e-08	3	true	DILUPBiCGStab	1.2449565750e-03	2.3925592900e-08	2	true	DICPCG	9.4621608610e-02	9.2503592600e-04	77	true
0.0097960483      	DILUPBiCGStab	8.8447964460e-03	1.5494180540e-04	1	true	smoothSolver	8.9689601830e-02	7.2946285110e-08	6	2.4325566270e-02	1.7403106220e-08	6	2.5949929150e-02	6.2942599990e-09	6	false	DILUPBiCGStab	1.7434826460e-02	1.2377867450e-08	3	true	DILUPBiCGStab	1.2219994250e-03	2.3010137260e-08	2	true	DICPCG	8.6933873320e-02	8.2802445480e-04	78	true
0.010349447       	DILUPBiCGStab	8.4993516480e-03	1.4603880690e-04	1	true	smoothSolver	8.1942841450e-02	8.8338215240e-08	6	2.2888033140e-02	1.6004204490e-08	6	2.4483220690e-02	8.1717464320e-09	6	false	DILUPBiCGStab	1.6824148610e-02	8.8666742330e-08	3	true	DILUPBiCGStab	1.2071964440e-03	2.2393449120e-08	2	true	DICPCG	8.0212219020e-02	7.6386084120e-04	78	true
0.010902845       	DILUPBiCGStab	8.1823951120e-03	1.3760666520e-04	1	true	smoothSolver	8.9755847480e-02	8.5460923630e-08	6	2.1528725880e-02	1.4719469160e-08	6	2.4226223660e-02	8.9987430700e-09	6	false	DILUPBiCGStab	1.6267351820e-02	7.6524457080e-08	3	true	DILUPBiCGStab	1.2025269080e-03	2.1997898300e-08	2	true	DICPCG	7.4807530970e-02	7.0105188180e-04	78	true
0.011456244       	DILUPBiCGStab	7.8899381120e-03	1.3051945180e-04	1	true	smoothSolver	8.2108989170e-02	6.4460428050e-08	6	2.0231229330e-02	1.3603683240e-08	6	2.3099392560e-02	8.9596888830e-09	6	false	DILUPBiCGStab	1.5764869280e-02	6.8310336160e-08	3	true	DILUPBiCGStab	1.2107283890e-03	2.1918877230e-08	2	true	DICPCG	7.0181533880e-02	6.7342118160e-04	78	true
0.012009642       	DILUPBiCGStab	7.6185990130e-03	1.2373204730e-04	1	true	smoothSolver	6.6632597250e-02	4.1601386850e-08	6	1.8998617200e-02	1.2612992440e-08	6	2.1476783930e-02	8.5736760260e-09	6	false	DILUPBiCGStab	1.5297984140e-02	6.3139704500e-08	3	true	DILUPBiCGStab	1.2345560540e-03	2.1932895310e-08	2	true	DICPCG	6.5990425770e-02	5.8809770060e-04	80	true
0.012563041       	DILUPBiCGStab	7.3657422670e-03	1.1776758390e-04	1	true	smoothSolver	5.4060353190e-02	2.8275597360e-08	6	1.7829159010e-02	1.1743844560e-08	6	1.9977865070e-02	8.2701490920e-09	6	false	DILUPBiCGStab	1.4862357390e-02	5.9360850390e-08	3	true	DILUPBiCGStab	1.2770333490e-03	2.2256348200e-08	2	true	DICPCG	6.2132805850e-02	6.0948538350e-04	81	true
0.013080419       	DILUPBiCGStab	6.6934638010e-03	6.2077213210e-04	1	true	smoothSolver	4.5745095880e-02	1.7759423650e-08	6	1.5857831530e-02	7.2009669240e-09	6	1.8115786350e-02	5.9668182810e-09	6	false	DILUPBiCGStab	1.3717716140e-02	4.0769545620e-08	3	true	DILUPBiCGStab	1.2590787500e-03	1.7274350660e-08	2	true	DICPCG	5.8013044750e-02	5.5955204580e-04	79	true
0.01353078        	DILUPBiCGStab	5.7480338140e-03	4.8220017170e-04	1	true	smoothSolver	4.0564536250e-02	8.5665234950e-09	6	1.3467312710e-02	2.8894576900e-09	6	1.6000606670e-02	2.9145403970e-09	6	false	DILUPBiCGStab	1.1881296400e-02	1.7944615690e-08	3	true	DILUPBiCGStab	1.1747600090e-03	9.7898544620e-09	2	true	DICPCG	5.0388828110e-02	4.9922877680e-04	67	true
0.0139311         	DILUPBiCGStab	5.0085831730e-03	3.6837784240e-04	1	true	smoothSolver	3.4330836780e-02	3.6551710250e-09	6	1.1597510910e-02	1.2574873710e-09	6	1.4324421240e-02	1.5067290410e-09	6	false	DILUPBiCGStab	1.0489265470e-02	7.2925020930e-08	2	true	DILUPBiCGStab	1.1179712470e-03	6.2763316670e-09	2	true	DICPCG	4.4946989670e-02	4.2333468680e-04	60	true
0.014291221       	DILUPBiCGStab	4.4193552070e-03	2.8375723390e-04	1	true	smoothSolver	2.8166501090e-02	1.5310135440e-09	6	1.0081313790e-02	8.8115473190e-08	4	1.2861843300e-02	8.0205602490e-10	6	false	DILUPBiCGStab	9.3675954450e-03	4.2820745580e-08	2	true	DILUPBiCGStab	1.0751340270e-03	5.1319270350e-09	2	true	DICPCG	4.0528120500e-02	3.9736324740e-04	56	true
0.014619607       	DILUPBiCGStab	3.9574644210e-03	2.2363958460e-04	1	true	smoothSolver	2.3293803320e-02	7.2924861250e-10	6	8.8863693900e-03	5.7692433380e-08	4	1.1710573620e-02	6.7677051160e-08	4	false	DILUPBiCGStab	8.4787497060e-03	2.6957384810e-08	2	true	DILUPBiCGStab	1.0459429610e-03	7.7316659730e-09	2	true	DICPCG	3.6501407020e-02	3.4099283820e-04	52	true
0.014921305       	DILUPBiCGStab	3.5752657840e-03	1.7866836230e-04	1	true	smoothSolver	2.0075507910e-02	4.2609846210e-10	6	7.9099637520e-03	4.0121251690e-08	4	1.0866319670e-02	4.6009008530e-08	4	false	DILUPBiCGStab	7.7378277710e-03	1.7791928770e-08	2	true	DILUPBiCGStab	1.0243690040e-03	3.6140382400e-08	2	true	DICPCG	3.2936612830e-02	3.0729225480e-04	48	true
0.015197534       	DILUPBiCGStab	3.2240108980e-03	1.4126809770e-04	1	true	smoothSolver	1.7726975570e-02	7.9353956000e-08	4	7.0395669310e-03	2.7945006790e-08	4	1.0251719390e-02	3.1321365030e-08	4	false	DILUPBiCGStab	7.0517094090e-03	1.1686327630e-08	2	true	DILUPBiCGStab	9.9900548020e-04	1.9900969690e-08	2	true	DICPCG	2.9640544560e-02	2.6124414610e-04	45	true
0.015446953       	DILUPBiCGStab	2.8724606460e-03	1.0776440420e-04	1	true	smoothSolver	1.5621105850e-02	5.5284602830e-08	4	6.2036578210e-03	1.8339347210e-08	4	9.7542753910e-03	2.0364111330e-08	4	false	DILUPBiCGStab	6.3560724440e-03	7.2416540760e-09	2	true	DILUPBiCGStab	9.5957696550e-04	9.9100352350e-09	2	true	DICPCG	2.6406171200e-02	2.6187158650e-04	40	true
0.015674859       	DILUPBiCGStab	2.5927403490e-03	8.4391912770e-05	1	true	smoothSolver	1.3902529270e-02	4.0404398430e-08	4	5.5384734710e-03	1.2924446570e-08	4	9.5136135050e-03	1.4502974810e-08	4	false	DILUPBiCGStab	5.8038280440e-03	4.9069996300e-09	2	true	DILUPBiCGStab	9.2924101050e-04	4.2804118690e-08	2	true	DICPCG	2.3757480940e-02	2.2466606940e-04	37	true
0.015885146       	DILUPBiCGStab	2.3659282540e-03	6.7647520410e-05	1	true	smoothSolver	1.2447867070e-02	3.0735206540e-08	4	4.9968981320e-03	9.6438075210e-09	4	9.3420695850e-03	1.0989763090e-08	4	false	DILUPBiCGStab	5.3597246830e-03	3.5801267350e-09	2	true	DILUPBiCGStab	9.0717618240e-04	7.0748176490e-08	2	true	DICPCG	2.1582384070e-02	1.7696734380e-04	35	true
0.016080308       	DILUPBiCGStab	2.1739830440e-03	5.5017008820e-05	1	true	smoothSolver	1.1208140750e-02	2.3965544310e-08	4	4.5377717050e-03	7.4467868560e-09	4	9.1718733060e-03	8.5312495280e-09	4	false	DILUPBiCGStab	4.9863589240e-03	9.1470888030e-08	2	true	DILUPBiCGStab	8.8856393710e-04	3.6075665820e-08	2	true	DICPCG	1.9751622030e-02	1.7985080430e-04	32	true
0.01626314        	DILUPBiCGStab	2.0182495070e-03	4.5829352320e-05	1	true	smoothSolver	1.0219329320e-02	1.9524987120e-08	4	4.1607040440e-03	6.0494292440e-09	4	9.0347841500e-03	6.9062593690e-09	4	false	DILUPBiCGStab	4.6883689190e-03	7.8061809740e-08	2	true	DILUPBiCGStab	8.7578613030e-04	2.8407969240e-08	2	true	DICPCG	1.8290130120e-02	1.5908497260e-04	30	true
0.016435084       	DILUPBiCGStab	1.8826202730e-03	3.8575998420e-05	1	true	smoothSolver	9.4000539380e-03	1.6180209750e-08	4	3.8316764190e-03	5.0167734680e-09	4	8.8949558580e-03	5.6834285680e-09	4	false	DILUPBiCGStab	4.4321790920e-03	6.8665195960e-08	2	true	DILUPBiCGStab	8.6461366860e-04	2.8216309860e-08	2	true	DICPCG	1.7065854570e-02	1.5425632990e-04	28	true
0.016597979       	DILUPBiCGStab	1.7702530490e-03	3.3106748570e-05	1	true	smoothSolver	8.7484620700e-03	1.3889523560e-08	4	3.5547422880e-03	4.3184841660e-09	4	8.7911575000e-03	4.8327458280e-09	4	false	DILUPBiCGStab	4.2241762600e-03	6.2963823770e-08	2	true	DILUPBiCGStab	8.5744627640e-04	3.0062214950e-08	2	true	DICPCG	1.6065598990e-02	1.3897790920e-04	27	true
0.016752713       	DILUPBiCGStab	1.6701987710e-03	2.8627600540e-05	1	true	smoothSolver	8.1910660610e-03	1.2253835280e-08	4	3.3075977980e-03	3.7595706550e-09	4	8.6918333210e-03	4.1691618320e-09	4	false	DILUPBiCGStab	4.0408309050e-03	5.8798344650e-08	2	true	DILUPBiCGStab	8.5105772190e-04	2.8683849150e-08	2	true	DICPCG	1.5189084760e-02	1.4663363360e-04	25	true
0.016900054       	DILUPBiCGStab	1.5805621220e-03	2.4923253920e-05	1	true	smoothSolver	7.7024950590e-03	1.0881771540e-08	4	3.0855857950e-03	3.3006171990e-09	4	8.5973410490e-03	3.6292283250e-09	4	false	DILUPBiCGStab	3.8782846290e-03	5.5879447300e-08	2	true	DILUPBiCGStab	8.4497898960e-04	2.7560443690e-08	2	true	DICPCG	1.4416943280e-02	1.3470588820e-04	24	true
0.017040901       	DILUPBiCGStab	1.5023109040e-03	2.1931265870e-05	1	true	smoothSolver	7.2755887920e-03	9.8234318660e-09	4	2.8897580080e-03	2.9409185230e-09	4	8.5139308430e-03	3.2134786940e-09	4	false	DILUPBiCGStab	3.7400827700e-03	5.4104864040e-08	2	true	DILUPBiCGStab	8.4083084100e-04	2.6988212160e-08	2	true	DICPCG	1.3760802580e-02	1.2142392770e-04	23	true
0.017176234       	DILUPBiCGStab	1.4358418240e-03	1.9571101470e-05	1	true	smoothSolver	6.9072819510e-03	9.0646648220e-09	4	2.7195060780e-03	2.6794995550e-09	4	8.4481253650e-03	2.9107828390e-09	4	false	DILUPBiCGStab	3.6272617690e-03	5.3299749620e-08	2	true	DILUPBiCGStab	8.3968693160e-04	2.7049793090e-08	2	true	DICPCG	1.3219518560e-02	1.2974842900e-04	22	true
0.017306256       	DILUPBiCGStab	1.3727408720e-03	1.7467329810e-05	1	true	smoothSolver	6.5560541770e-03	8.2658730840e-09	4	2.5586165970e-03	2.4300148260e-09	4	8.3606842230e-03	2.6270462780e-09	4	false	DILUPBiCGStab	3.5191350680e-03	5.2090333380e-08	2	true	DILUPBiCGStab	8.3743751740e-04	2.7219091100e-08	2	true	DICPCG	1.2722310970e-02	1.2168208390e-04	21	true
0.017431739       	DILUPBiCGStab	1.3187135480e-03	1.5783053790e-05	1	true	smoothSolver	6.2515371840e-03	7.6564687590e-09	4	2.4170816000e-03	2.2460061260e-09	4	8.2898045680e-03	2.4179388330e-09	4	false	DILUPBiCGStab	3.4309178450e-03	5.1269818960e-08	2	true	DILUPBiCGStab	8.3739556440e-04	3.0069173640e-08	2	true	DICPCG	1.2312368560e-02	9.8233041470e-05	21	true
0.017552985       	DILUPBiCGStab	1.2686491700e-03	1.4310083270e-05	1	true	smoothSolver	5.9704179050e-03	7.1023559140e-09	4	2.2853511430e-03	2.0873324090e-09	4	8.2121365090e-03	2.2335998530e-09	4	false	DILUPBiCGStab	3.3506252550e-03	5.0129167520e-08	2	true	DILUPBiCGStab	8.3679178590e-04	3.6936477190e-08	2	true	DICPCG	1.1944515600e-02	1.0541566310e-04	20	true
0.017670431       	DILUPBiCGStab	1.2238278040e-03	1.3065313410e-05	1	true	smoothSolver	5.7182261400e-03	6.6575732360e-09	4	2.1654715520e-03	1.9643537370e-09	4	8.1403224400e-03	2.0862198240e-09	4	false	DILUPBiCGStab	3.2813423440e-03	4.8815715790e-08	2	true	DILUPBiCGStab	8.3617978950e-04	4.5427262570e-08	2	true	DICPCG	1.1633249070e-02	1.1159665440e-04	19	true
0.017784303       	DILUPBiCGStab	1.1819441270e-03	1.1960816550e-05	1	true	smoothSolver	5.4848881280e-03	6.2523321650e-09	4	2.0531262790e-03	1.8462062500e-09	4	8.0636546780e-03	1.9540526930e-09	4	false	DILUPBiCGStab	3.2169927920e-03	4.7497451240e-08	2	true	DILUPBiCGStab	8.3538522460e-04	6.1282716440e-08	2	true	DICPCG	1.1350347570e-02	9.2501445790e-05	19	true
0.017894957       	DILUPBiCGStab	1.1442226810e-03	1.1017342160e-05	1	true	smoothSolver	5.2753016910e-03	5.9210066810e-09	4	1.9503488100e-03	1.7426836430e-09	4	7.9931475850e-03	1.8459410790e-09	4	false	DILUPBiCGStab	3.1597237870e-03	4.8129146800e-08	2	true	DILUPBiCGStab	8.3452311980e-04	3.5300430270e-09	2	true	DICPCG	1.1108941320e-02	1.0550655970e-04	18	true
0.018002706       	DILUPBiCGStab	1.1101519810e-03	1.0206566330e-05	1	true	smoothSolver	5.0851301470e-03	5.6527073390e-09	4	1.8557216150e-03	1.6548597630e-09	4	7.9292327310e-03	1.7581334610e-09	4	false	DILUPBiCGStab	3.1103156340e-03	4.8559289510e-08	2	true	DILUPBiCGStab	8.3490555680e-04	8.6543483450e-09	2	true	DICPCG	1.0906291860e-02	9.0938925870e-05	18	true
0.018107696       	DILUPBiCGStab	1.0779405200e-03	9.4730614090e-06	1	true	smoothSolver	4.9071354820e-03	5.3949762760e-09	4	1.7665602120e-03	1.5711120420e-09	4	7.8621289600e-03	1.6756490240e-09	4	false	DILUPBiCGStab	3.0647360590e-03	4.8049080930e-08	2	true	DILUPBiCGStab	8.3429253930e-04	6.0090494430e-08	2	true	DICPCG	1.0728547050e-02	1.0084396750e-04	17	true
0.018210318       	DILUPBiCGStab	1.0500220360e-03	8.8680238950e-06	1	true	smoothSolver	4.7508068700e-03	5.2143714210e-09	4	1.6862850200e-03	1.5121164780e-09	4	7.8101473160e-03	1.6184069880e-09	4	false	DILUPBiCGStab	3.0303380700e-03	4.6702311860e-08	2	true	DILUPBiCGStab	8.3458469930e-04	5.3944123220e-09	2	true	DICPCG	1.0594134160e-02	8.9163742450e-05	17	true
0.018310551       	DILUPBiCGStab	1.0221738770e-03	8.2850649120e-06	1	true	smoothSolver	4.5967506230e-03	5.0051711300e-09	4	1.6079704960e-03	1.4461719980e-09	4	7.7432844160e-03	1.5539708460e-09	4	false	DILUPBiCGStab	2.9934856230e-03	4.5325335370e-08	2	true	DILUPBiCGStab	8.3315131830e-04	9.2555978240e-08	2	true	DICPCG	1.0465333440e-02	1.0097149750e-04	16	true
0.018408735       	DILUPBiCGStab	9.9801714940e-04	7.8022886670e-06	1	true	smoothSolver	4.4595516500e-03	4.8643186170e-09	4	1.5373334330e-03	1.4012406300e-09	4	7.6875481130e-03	1.5110855660e-09	4	false	DILUPBiCGStab	2.9649720460e-03	4.5284329110e-08	2	true	DILUPBiCGStab	8.3292180650e-04	6.2314775630e-08	2	true	DICPCG	1.0371349840e-02	9.0766029530e-05	16	true
0.018504951       	DILUPBiCGStab	9.7488062390e-04	7.3555604780e-06	1	true	smoothSolver	4.3284198860e-03	4.7213213490e-09	4	1.4702361970e-03	1.3565736040e-09	4	7.6249496750e-03	1.4697418160e-09	4	false	DILUPBiCGStab	2.9377610230e-03	4.5423896870e-08	2	true	DILUPBiCGStab	8.3247509910e-04	5.0947805080e-08	2	true	DICPCG	1.0286490210e-02	8.1943106110e-05	16	true
0.018599274       	DILUPBiCGStab	9.5269759090e-04	6.9414245790e-06	1	true	smoothSolver	4.2024815110e-03	4.5741879660e-09	4	1.4066706540e-03	1.3121885680e-09	4	7.5559383590e-03	1.4284829250e-09	4	false	DILUPBiCGStab	2.9113269590e-03	4.6084828180e-08	2	true	DILUPBiCGStab	8.3203405110e-04	4.4578236550e-08	2	true	DICPCG	1.0210736190e-02	7.4807755500e-05	16	true
0.01869188        	DILUPBiCGStab	9.3245647210e-04	6.5775813470e-06	1	true	smoothSolver	4.0856747750e-03	4.4507883680e-09	4	1.3483439920e-03	1.2775654830e-09	4	7.4895967570e-03	1.3964132900e-09	4	false	DILUPBiCGStab	2.8882797810e-03	4.7255966650e-08	2	true	DILUPBiCGStab	8.3135678270e-04	3.7408075350e-08	2	true	DICPCG	1.0154946910e-02	6.9616820860e-05	16	true
0.018782931       	DILUPBiCGStab	9.1398267180e-04	6.2573697500e-06	1	true	smoothSolver	3.9779292110e-03	4.3470506770e-09	4	1.2948527450e-03	1.2520576920e-09	4	7.4263647610e-03	1.3705823010e-09	4	false	DILUPBiCGStab	2.8687250700e-03	4.8816724970e-08	2	true	DILUPBiCGStab	8.3090876690e-04	3.5451395710e-08	2	true	DICPCG	1.0113971690e-02	9.3750964330e-05	15	true
0.018872574       	DILUPBiCGStab	8.9712537200e-04	5.9752192720e-06	1	true	smoothSolver	3.8795996920e-03	4.2628073770e-09	4	1.2460585080e-03	1.2342289370e-09	4	7.3664094260e-03	1.3500843400e-09	4	false	DILUPBiCGStab	2.8534364870e-03	5.0614843680e-08	2	true	DILUPBiCGStab	8.3118939040e-04	3.5805283750e-08	2	true	DICPCG	1.0088597410e-02	8.6787648480e-05	15	true
0.018960852       	DILUPBiCGStab	8.8080712680e-04	5.7092192070e-06	1	true	smoothSolver	3.7856633020e-03	4.1743893180e-09	4	1.2003214650e-03	1.2156189760e-09	4	7.3024488070e-03	1.3270225280e-09	4	false	DILUPBiCGStab	2.8402066550e-03	5.3138652540e-08	2	true	DILUPBiCGStab	8.3104300210e-04	3.8240786720e-08	2	true	DICPCG	1.0063784150e-02	8.0567235780e-05	15	true
0.019047804       	DILUPBiCGStab	8.6500339460e-04	5.4581750300e-06	1	true	smoothSolver	3.6963548070e-03	4.0839273800e-09	4	1.1577553760e-03	1.1960494020e-09	4	7.2354315120e-03	1.3030268350e-09	4	false	DILUPBiCGStab	2.8267067700e-03	5.5336835150e-08	2	true	DILUPBiCGStab	8.3045130460e-04	4.1456493750e-08	2	true	DICPCG	1.0039694010e-02	7.4753284730e-05	15	true
0.019133559       	DILUPBiCGStab	8.5058124920e-04	5.2364312380e-06	1	true	smoothSolver	3.6150408160e-03	4.0103908110e-09	4	1.1193006760e-03	1.1817049740e-09	4	7.1733756700e-03	1.2847127400e-09	4	false	DILUPBiCGStab	2.8153942630e-03	5.7177021580e-08	2	true	DILUPBiCGStab	8.3048608570e-04	4.4318579930e-08	2	true	DICPCG	1.0024553730e-02	9.4076852880e-05	14	true
0.019218235       	DILUPBiCGStab	8.3743932080e-04	5.0406901240e-06	1	true	smoothSolver	3.5412508110e-03	3.9531188830e-09	4	1.0848054520e-03	1.1722505800e-09	4	7.1166517940e-03	1.2712751090e-09	4	false	DILUPBiCGStab	2.8063485660e-03	5.9756466840e-08	2	true	DILUPBiCGStab	8.3051064680e-04	4.5486567180e-08	2	true	DICPCG	1.0018233920e-02	8.9379838050e-05	14	true
0.01930186        	DILUPBiCGStab	8.2464338860e-04	4.8541717170e-06	1	true	smoothSolver	3.4721657920e-03	3.8871343380e-09	4	1.0531219100e-03	1.1609839640e-09	4	7.0579254430e-03	1.2554898320e-09	4	false	DILUPBiCGStab	2.7982600820e-03	6.1334310390e-08	2	true	DILUPBiCGStab	8.3116423020e-04	5.8760587720e-08	2	true	DICPCG	1.0009897620e-02	8.5282965900e-05	14	true
0.019384543       	DILUPBiCGStab	8.1300398930e-04	4.6896885070e-06	1	true	smoothSolver	3.4094201910e-03	3.8339700630e-09	4	1.0255295990e-03	1.1540119680e-09	4	7.0044564660e-03	1.2450044960e-09	4	false	DILUPBiCGStab	2.7936377200e-03	6.3073685630e-08	2	true	DILUPBiCGStab	8.3179044550e-04	8.2504509850e-08	2	true	DICPCG	1.0009995590e-02	8.1924009520e-05	14	true
0.019466303       	DILUPBiCGStab	8.0164390250e-04	4.5322383700e-06	1	true	smoothSolver	3.3500360070e-03	3.7720714390e-09	4	1.0016572660e-03	1.1455923240e-09	4	6.9491411280e-03	1.2341916320e-09	4	false	DILUPBiCGStab	2.7893195490e-03	6.4753683010e-08	2	true	DILUPBiCGStab	8.3149970730e-04	5.5362334170e-09	2	true	DICPCG	1.0006305750e-02	7.8281413930e-05	14	true
0.019547241       	DILUPBiCGStab	7.9133971370e-04	4.3937198840e-06	1	true	smoothSolver	3.2973343860e-03	3.7184115010e-09	4	9.8414881670e-04	1.1412755270e-09	4	6.8984487180e-03	1.2296860800e-09	4	false	DILUPBiCGStab	2.7868307240e-03	6.5821433680e-08	2	true	DILUPBiCGStab	8.3140184770e-04	2.4239715370e-11	3	true	DICPCG	1.0010183670e-02	7.4791331190e-05	14	true