# Region type :   patch outlet
# Faces           : 398
# Area            : 8.2960538044e-02
# Scale factor    : 1.0000000000e+00
# Time            	areaAverage(H2)
0.0022358089      	0.0000000000e+00
0.016893762       	0.0000000000e+00
0.022391067       	0.0000000000e+00
0.027908632       	0.0000000000e+00
0.034135332       	5.7750210359e-298
0.040832262       	2.7567727954e-259
0.049336658       	1.8708869841e-221
0.05738825        	6.2142715479e-201
0.06618347        	2.0300092482e-179
0.073079569       	8.0279542113e-169
0.078248276       	1.8294088762e-162
0.08301089        	5.1209288811e-157
0.087748701       	8.6471502191e-152
0.092833921       	3.6976524525e-146
0.098973358       	5.2768345844e-139
0.10747408        	2.1530274079e-128
0.11547459        	1.4693761009e-120
0.12474531        	1.9524449594e-113
0.13257281        	5.2627472575e-110
0.13947874        	6.7731000159e-108
0.14694518        	8.1269749872e-106
0.15814714        	8.0944794534e-103
0.17072757        	1.0855116086e-99
0.18260398        	8.5760067794e-97
0.19164155        	9.0182928275e-95
0.2017218         	3.7163683476e-92
0.21379741        	4.0400708197e-87
0.22365631        	2.6928166580e-82
0.23187706        	1.9755379940e-78
0.23954293        	8.0638016701e-75
0.24764871        	4.7175148123e-71
0.25615615        	2.1241656209e-67
0.26425162        	2.9926483447e-64
0.27177432        	1.8815985057e-61
0.27908243        	1.2692286238e-58
0.2873379         	1.9893676454e-55
0.29638226        	1.8244073172e-52
0.30511002        	2.7462960555e-50
0.31397003        	1.2601659135e-48
0.32339025        	2.8379624215e-47
0.33287409        	5.2929407403e-46
0.34218668        	7.3238605772e-45
0.35143649        	9.0947331641e-44
0.3598598         	9.6676696997e-43
0.36712529        	9.0118252811e-42
0.37354154        	8.5780431981e-41
0.37942185        	9.2921320005e-40
0.38507496        	1.2451583607e-38
0.39065897        	2.0575872041e-37
0.39603746        	3.5726100315e-36
0.40121654        	5.6845606976e-35
0.40585364        	6.2759803100e-34
0.41020344        	5.6241660676e-33
0.41438671        	4.4251103205e-32
0.41850299        	3.2457510189e-31
0.42262138        	2.3118965315e-30
0.42678842        	1.6493806331e-29
0.4310482         	1.2056016047e-28
0.4354457         	9.1233177275e-28
0.44002726        	7.1308450206e-27
0.444838          	5.6441667291e-26
0.44990241        	4.3334032754e-25
0.45522465        	3.0516781649e-24
0.46080715        	1.8688158117e-23
0.46667252        	9.6417800920e-23
0.47288711        	4.2075479890e-22
0.47964641        	1.6412487813e-21
0.48741374        	6.4165984180e-21
0.49658857        	2.7358522616e-20
0.50638772        	1.1165303848e-19
0.51579955        	3.8655987266e-19
0.52414681        	1.1616732652e-18
0.53137451        	3.3276211705e-18
0.53780425        	9.7733412671e-18
0.54373059        	3.0526876748e-17
0.54932736        	1.0203281091e-16
0.55465498        	3.5691201230e-16
0.55971336        	1.2561433683e-15
0.56450392        	4.2866091363e-15
0.56905078        	1.3860967672e-14
0.57339879        	4.2277595938e-14
0.57761392        	1.2326442985e-13
0.58176605        	3.5038475105e-13
0.58593467        	9.9227339603e-13
0.59017953        	2.8389857478e-12
0.59453867        	8.2461697788e-12
0.59890773        	2.3496316225e-11
0.6034749         	6.7939348468e-11
0.60822483        	1.9512096974e-10
0.6131227         	5.4179725635e-10
0.61819457        	1.4370975315e-09
0.62349064        	3.6198993818e-09
0.62910356        	8.6921111708e-09
0.63517271        	2.0066288500e-08
0.64191333        	4.5196692126e-08
0.64957401        	1.0092140975e-07
0.65826843        	2.2331870952e-07
0.66778975        	4.7558283815e-07
0.67705393        	9.1137636013e-07
0.68542921        	1.6087934717e-06
0.69292553        	2.7689814926e-06
0.7               	4.9103913575e-06
0.70626171        	8.5886529434e-06
0.71205781        	1.4929776769e-05
0.71745131        	2.5461301163e-05
0.72249856        	4.2259259871e-05
0.7272708         	6.8157768409e-05
0.73183362        	1.0679644800e-04
0.73625042        	1.6262974896e-04
0.74058355        	2.4117408954e-04
0.74488909        	3.4946774102e-04
0.749207          	4.9583990425e-04
0.75357927        	6.8958736048e-04
0.75803915        	9.3930205014e-04
0.76260364        	1.2502650856e-03
0.76727333        	1.6219455161e-03
0.77205364        	2.0481261391e-03
0.77695827        	2.5175755691e-03
0.78204181        	3.0188469890e-03
0.78739163        	3.5418148118e-03
0.79316567        	4.0820738020e-03
0.79937741        	4.6192543138e-03
0.80651673        	5.1669724009e-03
0.81455871        	5.6875779385e-03
0.82331371        	6.1430788219e-03
0.83232165        	6.5129175814e-03
0.84097178        	6.8084184919e-03
0.8488546         	7.0576658195e-03
0.85602995        	7.2839767028e-03
0.8626216         	7.4938332201e-03
0.86868161        	7.6846140266e-03
0.87425882        	7.8549203652e-03
0.87943623        	8.0084964777e-03
0.88431137        	8.1529388371e-03
0.88897171        	8.2980335404e-03
0.89348851        	8.4553697686e-03
0.89797919        	8.6415749976e-03
0.90242531        	8.8720269272e-03
0.90684308        	9.1660507986e-03
0.91129005        	9.5481496428e-03
0.91578914        	1.0040447435e-02
0.92036169        	1.0659383043e-02
0.92502761        	1.1410456260e-02
0.92980986        	1.2284449495e-02
0.93473513        	1.3256011665e-02
0.93984729        	1.4288996434e-02
0.94522448        	1.5345740241e-02
0.95100714        	1.6396113148e-02
0.95738229        	1.7410252380e-02
0.96452715        	1.8344290512e-02
0.97241634        	1.9130000263e-02
0.98082624        	1.9721304007e-02
0.98934791        	2.0130789908e-02
0.99786958        	2.0430689889e-02
1.0057411         	2.0670933772e-02
1.0128302         	2.0887671207e-02
1.0193299         	2.1094546425e-02
1.0253237         	2.1286622377e-02
1.0308763         	2.1454964041e-02
1.0360604         	2.1593414972e-02
1.0409588         	2.1700570508e-02
1.0456588         	2.1778370549e-02
1.0502367         	2.1830829342e-02
1.0547499         	2.1864290829e-02
1.0592524         	2.1887477317e-02
1.0637549         	2.1910869999e-02
1.0682846         	2.1946628667e-02
1.0728608         	2.2007618237e-02
1.0775007         	2.2106553615e-02
1.0822319         	2.2255511845e-02
1.087083          	2.2465302267e-02
1.092107          	2.2745878689e-02
1.0973432         	2.3103556873e-02
1.1028089         	2.3537207347e-02
1.1087524         	2.4058859757e-02
1.1152582         	2.4657649595e-02
1.1224444         	2.5308088555e-02
1.1302462         	2.5952216105e-02
1.1383994         	2.6526020225e-02
1.1466268         	2.7011620094e-02
1.1545726         	2.7429454276e-02
1.1620198         	2.7811471769e-02
1.168893          	2.8172356699e-02
1.1752376         	2.8508629089e-02
1.181123          	2.8805697675e-02
1.1866118         	2.9046150924e-02
1.1917907         	2.9217060097e-02
1.196766          	2.9309463300e-02
