# Region type :   patch outlet
# Faces           : 398
# Area            : 8.2960538044e-02
# Scale factor    : 1.0000000000e+00
# Time            	areaAverage(H2)
0.0022358089      	0.0000000000e+00
0.012082188       	0.0000000000e+00
0.014746086       	0.0000000000e+00
0.016692635       	0.0000000000e+00
0.018747826       	0.0000000000e+00
0.021054233       	0.0000000000e+00
0.023353692       	0.0000000000e+00
0.025634213       	0.0000000000e+00
0.027942428       	0.0000000000e+00
0.030376467       	0.0000000000e+00
0.033407289       	8.2093673039e-296
0.038590147       	8.9446994843e-245
0.044344487       	1.8115170146e-219
0.050114102       	5.3668905474e-201
0.054238893       	2.8444111927e-192
0.057535219       	3.3426434942e-186
0.060569799       	7.7589546355e-181
0.063381043       	9.0504499606e-176
0.066125682       	2.1469289950e-170
0.068980163       	1.6353305344e-164
0.071931618       	1.0550078742e-158
0.075045893       	6.8737413851e-153
0.078503497       	1.8151558304e-146
0.082431885       	2.3517038778e-139
0.0869164         	6.7097031106e-132
0.091145429       	7.6643541972e-126
0.094631496       	2.5142949095e-121
0.097564602       	1.1579055308e-117
0.1002656         	2.8773549689e-114
0.10297949        	7.0613063888e-111
0.10600535        	3.8347391200e-107
0.10961625        	1.0881659090e-102
0.11320654        	1.0526843183e-98
0.11615337        	5.5852207270e-96
0.11881395        	6.5018801912e-94
0.121523          	3.8647798201e-92
0.12449685        	1.6269877457e-90
0.12765088        	4.3467420495e-89
0.13066107        	6.3302085610e-88
0.13343826        	5.9157525734e-87
0.13614965        	4.7053332824e-86
0.13903638        	4.1835296019e-85
0.14236144        	5.5542725269e-84
0.14609656        	1.0322713681e-82
0.149685          	1.3662654220e-81
0.15292848        	1.1307989521e-80
0.15602748        	7.2889427558e-80
0.15914454        	4.2707418145e-79
0.16228155        	2.3873264799e-78
0.16535775        	1.3096325477e-77
0.16837532        	7.5826125592e-77
0.17148794        	5.2544138843e-76
0.17493985        	5.0142496192e-75
0.17883285        	6.7426387636e-74
0.18260823        	8.3269032936e-73
0.18586942        	6.9901381873e-72
0.18882097        	4.7808325943e-71
0.19173429        	3.3841577220e-70
0.19474646        	2.9885623429e-69
0.19783678        	3.7694699218e-68
0.20091509        	7.2387689584e-67
0.20394401        	2.1495376622e-65
0.20701087        	1.0553836914e-63
0.21018521        	8.3105177786e-62
0.21340889        	7.5175069352e-60
0.21653156        	4.9371291250e-58
0.21947405        	2.0256381223e-56
0.22227467        	5.7571773855e-55
0.22501304        	1.3356554781e-53
0.2277565         	2.8970299726e-52
0.23053431        	6.3208621069e-51
0.23334261        	1.4020256024e-49
0.23617753        	3.1126195784e-48
0.23906052        	7.0054063407e-47
0.24203031        	1.6812425693e-45
0.24509049        	4.5230365098e-44
0.24815198        	1.3507010407e-42
0.25108625        	3.8812416867e-41
0.25384821        	9.3207693362e-40
0.25648678        	1.8589497894e-38
0.25908858        	3.2986637593e-37
0.26173943        	5.6256457842e-36
0.26449889        	9.7218208331e-35
0.26737879        	1.6863048218e-33
0.2703447         	2.7382357872e-32
0.27335765        	3.8256224941e-31
0.27640756        	4.3175681063e-30
0.2794861         	3.7393320037e-29
0.28255035        	2.3791790738e-28
0.28556246        	1.1195104707e-27
0.28852388        	4.1331083883e-27
0.29147834        	1.2987079267e-26
0.29449273        	3.7542705809e-26
0.297601          	1.0527170178e-25
0.30081567        	2.9591001702e-25
0.30413486        	8.4339925078e-25
0.30751512        	2.3851300268e-24
0.31091179        	6.4296010751e-24
0.31426761        	1.5901604171e-23
0.31753664        	3.5686912045e-23
0.32071285        	7.4135916347e-23
0.32383799        	1.4774131785e-22
0.32698508        	2.9301786855e-22
0.33023644        	5.9606569681e-22
0.3336418         	1.2702543018e-21
0.33717141        	2.8641060759e-21
0.3407035         	6.6115103541e-21
0.34409967        	1.5051141579e-20
0.34732256        	3.3687465325e-20
0.35041875        	7.6285915160e-20
0.35345706        	1.8177066669e-19
0.35648682        	4.7268108974e-19
0.35953748        	1.3811155011e-18
0.36261721        	4.5770217436e-18
0.36572691        	1.6933289082e-17
0.36884264        	6.6569581308e-17
0.37194225        	2.6267830178e-16
0.37498591        	9.8459113883e-16
0.37795714        	3.4159568403e-15
0.38086102        	1.0974586542e-14
0.38371331        	3.3118462705e-14
0.38653615        	9.5764717920e-14
0.38934112        	2.6911943651e-13
0.3921729         	7.5112071869e-13
0.39503736        	2.0854996557e-12
0.39795656        	5.7907330757e-12
0.40088757        	1.5745000335e-11
0.40383856        	4.1845623805e-11
0.40674574        	1.0627111441e-10
0.40958301        	2.5618728003e-10
0.41235061        	5.8710859519e-10
0.41507103        	1.2882549798e-09
0.41777862        	2.7323038976e-09
0.42051442        	5.6567949121e-09
0.42331359        	1.1501695303e-08
0.42619426        	2.2952186311e-08
0.42914998        	4.4558651507e-08
0.43215622        	8.3000902110e-08
0.43518643        	1.4651895127e-07
0.43821892        	2.4344603410e-07
0.44123987        	3.8092905694e-07
0.44424773        	5.6552090129e-07
0.44725324        	8.0570253798e-07
0.45027588        	1.1153069886e-06
0.45334359        	1.5180817764e-06
0.45647798        	2.0493066001e-06
0.45968741        	2.7529024651e-06
0.46295891        	3.6701068453e-06
0.4662606         	4.8224065086e-06
0.46954628        	6.1996651191e-06
0.47279297        	7.7815652111e-06
0.47599486        	9.5574878780e-06
0.47917435        	1.1553511160e-05
0.48236075        	1.3834560786e-05
0.48559839        	1.6529824890e-05
0.48891891        	1.9861323508e-05
0.49231879        	2.4126032667e-05
0.49573266        	2.9559621622e-05
0.49914653        	3.6549628372e-05
0.50240939        	4.5239302823e-05
0.50554964        	5.6270090572e-05
0.50864344        	7.0872930374e-05
0.51171781        	9.0788378211e-05
0.51478368        	1.1852078392e-04
0.51784901        	1.5751250472e-04
0.5209184         	2.1220825448e-04
0.52398953        	2.8785841902e-04
0.52705188        	3.8998476405e-04
0.53008452        	5.2356866226e-04
0.53307048        	6.9320565611e-04
0.53600666        	9.0425593692e-04
0.53889844        	1.1636844059e-03
0.54176085        	1.4811929926e-03
0.54461078        	1.8691028711e-03
0.54746894        	2.3427915872e-03
0.55034597        	2.9178815457e-03
0.55324142        	3.6073690439e-03
0.55614568        	4.4185145202e-03
0.55903633        	5.3487886832e-03
0.56189754        	6.3895475421e-03
0.56471896        	7.5258118175e-03
0.56750374        	8.7410598840e-03
0.57026938        	1.0021147203e-02
0.57304049        	1.1353500946e-02
0.57584453        	1.2725238357e-02
0.57869931        	1.4115810576e-02
0.58160659        	1.5493017011e-02
0.58456244        	1.6819774028e-02
0.58755519        	1.8058090516e-02
0.59057993        	1.9181787025e-02
0.59361866        	2.0173732574e-02
0.59665739        	2.1033427127e-02
0.59969613        	2.1774212693e-02
0.60274513        	2.2414511362e-02
0.60581766        	2.2971408149e-02
0.60893092        	2.3457088913e-02
0.61209562        	2.3876569132e-02
0.61530999        	2.4229632640e-02
0.61855933        	2.4514935329e-02
0.62181826        	2.4734095706e-02
0.62506929        	2.4893872162e-02
0.62830279        	2.5003899383e-02
0.63152513        	2.5074122027e-02
0.63475101        	2.5112254941e-02
0.63800446        	2.5122345002e-02
0.64130253        	2.5103722955e-02
0.64463213        	2.5052148269e-02
0.64795276        	2.4961902095e-02
0.65122876        	2.4826754856e-02
0.65444748        	2.4639474552e-02
0.65761199        	2.4391507795e-02
0.66073347        	2.4072731544e-02
0.66382133        	2.3673067356e-02
0.66688514        	2.3184993423e-02
0.66993721        	2.2605596138e-02
0.67298757        	2.1939360451e-02
0.67602267        	2.1205063750e-02
0.6790567         	2.0423036430e-02
0.68206888        	1.9627054674e-02
0.68505035        	1.8848703567e-02
0.68799752        	1.8116169339e-02
0.69091621        	1.7453385197e-02
0.69379996        	1.6885884347e-02
0.6966837         	1.6431912330e-02
0.69956744        	1.6119373309e-02
0.70244253        	1.5976886949e-02
0.70531566        	1.6029359161e-02
0.70818333        	1.6296711402e-02
0.71104093        	1.6789195908e-02
0.71388321        	1.7504188437e-02
0.71670919        	1.8426035806e-02
0.71952446        	1.9528950521e-02
0.72234055        	2.0780540959e-02
0.72517135        	2.2143813551e-02
0.72802652        	2.3576170961e-02
0.73091381        	2.5032120100e-02
0.73383778        	2.6465326648e-02
0.73680037        	2.7832682137e-02
0.73979912        	2.9097984753e-02
0.7428268         	3.0235810689e-02
0.7458733         	3.1233788157e-02
0.74893222        	3.2092525295e-02
0.75200081        	3.2820513603e-02
0.7550823         	3.3430072656e-02
0.75818524        	3.3932865093e-02
0.76131909        	3.4337480962e-02
0.76449015        	3.4650220073e-02
0.76769544        	3.4876369880e-02
0.77092443        	3.5022683449e-02
0.7741731         	3.5098529166e-02
0.77742177        	3.5114612739e-02
0.78067043        	3.5081966448e-02
0.7839191         	3.5008900796e-02
0.78716777        	3.4899898462e-02
0.79044233        	3.4754512670e-02
0.79373808        	3.4569347359e-02
0.79703383        	3.4339041379e-02
0.80032336        	3.4055624220e-02
0.80354041        	3.3717738063e-02
0.80672241        	3.3315531968e-02
0.80986633        	3.2843916338e-02
0.81297369        	3.2300295306e-02
0.81605004        	3.1684910776e-02
0.81910293        	3.1000638112e-02
0.82213924        	3.0253240403e-02
0.82516497        	2.9451231495e-02
0.82818064        	2.8606604826e-02
0.83118522        	2.7732993565e-02
0.83417248        	2.6846100752e-02
0.83713718        	2.5961575446e-02
0.84007796        	2.5094159252e-02
0.8429962         	2.4257954049e-02
0.84589591        	2.3467252121e-02
0.84877903        	2.2739075467e-02
0.85165048        	2.2092882609e-02
0.8545118         	2.1551848069e-02
0.85736543        	2.1140403380e-02
0.86021623        	2.0882542667e-02
0.86305792        	2.0799972150e-02
0.86589962        	2.0907306472e-02
0.86874132        	2.1211103065e-02
0.87159599        	2.1709520083e-02
0.87445898        	2.2388139246e-02
0.87733653        	2.3224701829e-02
0.88023349        	2.4189649723e-02
0.8831561         	2.5249599305e-02
0.88610901        	2.6369391359e-02
0.88909632        	2.7515285401e-02
0.89211878        	2.8656124661e-02
0.89515002        	2.9756698082e-02
0.89818126        	3.0795886589e-02
0.90123291        	3.1768292240e-02
0.90432477        	3.2670797072e-02
0.90743349        	3.3489474315e-02
0.9105638         	3.4221061981e-02
0.91371924        	3.4863883449e-02
0.91690145        	3.5417562277e-02
0.92010913        	3.5883490479e-02
0.92333948        	3.6265353596e-02
0.92658759        	3.6569378463e-02
0.92984754        	3.6804446243e-02
0.93311472        	3.6979967395e-02
0.93638415        	3.7103584804e-02
0.93964476        	3.7180379601e-02
0.94289392        	3.7212087384e-02
0.94612787        	3.7195994995e-02
0.94934685        	3.7125076778e-02
0.95254699        	3.6989295253e-02
0.95572295        	3.6777172927e-02
0.9588712         	3.6477971176e-02
0.96198784        	3.6084168439e-02
0.96507476        	3.5592238929e-02
0.96813335        	3.5003353390e-02
0.97117163        	3.4321346816e-02
0.97419248        	3.3554156590e-02
0.97720247        	3.2711334788e-02
0.98020214        	3.1806066886e-02
0.98318321        	3.0856357620e-02
0.98615964        	2.9874698718e-02
0.98910439        	2.8888015728e-02
0.99204915        	2.7904146709e-02
0.99499391        	2.6942448770e-02
0.99793867        	2.6024410739e-02
1.000861          	2.5180181618e-02
1.0037225         	2.4442778948e-02
1.0065741         	2.3821011498e-02
1.0094225         	2.3337062785e-02
1.012272          	2.3011855787e-02
1.0151275         	2.2862148715e-02
1.0179924         	2.2898320416e-02
1.0208674         	2.3121961002e-02
1.0237537         	2.3524713109e-02
1.0266523         	2.4088970922e-02
1.0295672         	2.4790594834e-02
1.0325023         	2.5601493082e-02
1.035461          	2.6492119746e-02
1.0384467         	2.7434147173e-02
1.0414602         	2.8400978402e-02
1.0444995         	2.9368412314e-02
1.0475618         	3.0315279498e-02
1.0506434         	3.1223212838e-02
1.0537429         	3.2077507044e-02
1.0568581         	3.2865989956e-02
1.0599902         	3.3580658854e-02
1.0631415         	3.4217182848e-02
1.0663138         	3.4774008691e-02
1.069511          	3.5252595919e-02
1.072731          	3.5655877401e-02
1.075973          	3.5989480104e-02
1.0792349         	3.6260544355e-02
1.082505          	3.6475070183e-02
1.0857751         	3.6638761924e-02
1.0890261         	3.6755174452e-02
1.0922537         	3.6825743571e-02
1.0954813         	3.6848141290e-02
1.098709          	3.6815089805e-02
1.1019073         	3.6717217196e-02
1.1050699         	3.6544632517e-02
1.1082101         	3.6287341286e-02
1.1113254         	3.5938873735e-02
1.1144136         	3.5497187322e-02
1.1174765         	3.4964111714e-02
1.1205176         	3.4344460816e-02
1.1235399         	3.3645529589e-02
1.1265471         	3.2876311158e-02
1.1295405         	3.2048033320e-02
1.1325213         	3.1173685030e-02
1.1354896         	3.0268028364e-02
1.1384446         	2.9347385610e-02
1.1413834         	2.8429901180e-02
1.1443038         	2.7534662436e-02
1.1472045         	2.6681877276e-02
1.1500866         	2.5892134692e-02
1.152953          	2.5186308554e-02
1.155813          	2.4584163186e-02
1.1586662         	2.4107042375e-02
1.1615266         	2.3771997416e-02
1.1643942         	2.3594918797e-02
1.1672729         	2.3585348441e-02
1.170163          	2.3745484890e-02
1.1730651         	2.4068985537e-02
1.1759796         	2.4541455524e-02
1.1789089         	2.5142593261e-02
1.1818578         	2.5849120000e-02
1.1848256         	2.6635320415e-02
1.1878143         	2.7476785496e-02
1.1908231         	2.8350016637e-02
1.193857          	2.9235228872e-02
1.1969285         	3.0116633759e-02
1.2               	3.0965795450e-02
