# Region type :   patch outlet
# Faces           : 387
# Area            : 8.2961616953e-02
# Scale factor    : 1.0000000000e+00
# Time            	areaAverage(p_rgh)
0.0022358089      	6.9000000000e+06
0.013973227       	6.9000000000e+06
0.019638165       	6.9000000000e+06
0.025756229       	6.9000000000e+06
0.032437003       	6.9000000000e+06
0.042074845       	6.9000000000e+06
0.051415835       	6.9000000000e+06
0.058627007       	6.9000000000e+06
0.064474227       	6.9000000000e+06
0.070061843       	6.9000000000e+06
0.075653834       	6.9000000000e+06
0.081757432       	6.9000000000e+06
0.088751534       	6.9000000000e+06
0.096490478       	6.9000000000e+06
0.10325145        	6.9000000000e+06
0.10917447        	6.9000000000e+06
0.11517175        	6.9000000000e+06
0.12273934        	6.9000000000e+06
0.13264856        	6.9000000000e+06
0.14118241        	6.9000000000e+06
0.14894287        	6.9000000000e+06
0.15978505        	6.9000000000e+06
0.17236804        	6.9000000000e+06
0.18161825        	6.9000000000e+06
0.19190104        	6.9000000000e+06
0.20124481        	6.9000000000e+06
0.20942872        	6.9000000000e+06
0.21782208        	6.9000000000e+06
0.22513243        	6.9000000000e+06
0.23144841        	6.9000000000e+06
0.23678045        	6.9000000000e+06
0.24152719        	6.9000000000e+06
0.24615896        	6.9000000000e+06
0.25082269        	6.9000000000e+06
0.25550476        	6.9000000000e+06
0.26030258        	6.9000000000e+06
0.26537553        	6.9000000000e+06
0.27065864        	6.9000000000e+06
0.2760049         	6.9000000000e+06
0.28149586        	6.9000000000e+06
0.28716602        	6.9000000000e+06
0.29287001        	6.9000000000e+06
0.298574          	6.9000000000e+06
0.30458696        	6.9000000000e+06
0.3110402         	6.9000000000e+06
0.31811735        	6.9000000000e+06
0.32563671        	6.9000000000e+06
0.33326774        	6.9000000000e+06
0.34059372        	6.9000000000e+06
0.34722061        	6.9000000000e+06
0.35336884        	6.9000000000e+06
0.3593049         	6.9000000000e+06
0.36520274        	6.9000000000e+06
0.37110058        	6.9000000000e+06
0.37692528        	6.9000000000e+06
0.3825859         	6.9000000000e+06
0.38804735        	6.9000000000e+06
0.39329134        	6.9000000000e+06
0.39845185        	6.9000000000e+06
0.40348437        	6.9000000000e+06
0.40846028        	6.9000000000e+06
0.41349084        	6.9000000000e+06
0.41861852        	6.9000000000e+06
0.42384034        	6.9000000000e+06
0.4291273         	6.9000000000e+06
0.43449884        	6.9000000000e+06
0.43997004        	6.9000000000e+06
0.44551668        	6.9000000000e+06
0.45114719        	6.9000000000e+06
0.45692748        	6.9000000000e+06
0.46292474        	6.9000000000e+06
0.46923893        	6.9000000000e+06
0.47602505        	6.9000000000e+06
0.48323001        	6.9000000000e+06
0.49068334        	6.9000000000e+06
0.49813667        	6.9000000000e+06
0.50515232        	6.9000000000e+06
0.51167868        	6.9000000000e+06
0.51795111        	6.9000000000e+06
0.52414428        	6.9000000000e+06
0.53028672        	6.9000000000e+06
0.53631018        	6.9000000000e+06
0.542148          	6.9000000000e+06
0.54774941        	6.9000000000e+06
0.55313061        	6.9000000000e+06
0.55835795        	6.9000000000e+06
0.56348498        	6.9000000000e+06
0.56859197        	6.9000000000e+06
0.57372784        	6.9000000000e+06
0.57893024        	6.9000000000e+06
0.58418742        	6.9000000000e+06
0.58945828        	6.9000000000e+06
0.59472914        	6.9000000000e+06
0.6               	6.9000000000e+06
0.6054885         	6.9000000000e+06
0.61107147        	6.9000000000e+06
0.61678687        	6.9000000000e+06
0.62271278        	6.9000000000e+06
0.62897814        	6.9000000001e+06
0.6356405         	6.9000000002e+06
0.64263103        	6.9000000003e+06
0.64982026        	6.9000000005e+06
0.65695237        	6.9000000008e+06
0.66385803        	6.9000000012e+06
0.67046961        	6.9000000017e+06
0.67686613        	6.9000000024e+06
0.68315466        	6.9000000034e+06
0.68937681        	6.9000000050e+06
0.69544721        	6.9000000075e+06
0.70144256        	6.9000000114e+06
0.70706338        	6.9000000171e+06
0.71248278        	6.9000000251e+06
0.71776111        	6.9000000360e+06
0.72295491        	6.9000000504e+06
0.72813209        	6.9000000690e+06
0.73334913        	6.9000000928e+06
0.73860166        	6.9000001224e+06
0.74387191        	6.9000001586e+06
0.74916039        	6.9000002018e+06
0.75451334        	6.9000002534e+06
0.75994304        	6.9000003142e+06
0.76545687        	6.9000003845e+06
0.77106544        	6.9000004644e+06
0.77681289        	6.9000005537e+06
0.78279928        	6.9000006529e+06
0.78910834        	6.9000007636e+06
0.79570934        	6.9000008851e+06
0.80243913        	6.9000010126e+06
0.80945435        	6.9000011480e+06
0.81641393        	6.9000012838e+06
0.82320171        	6.9000014198e+06
0.82977163        	6.9000015601e+06
0.83616721        	6.9000017140e+06
0.84243905        	6.9000018933e+06
0.84859479        	6.9000021080e+06
0.85459515        	6.9000023604e+06
0.86038822        	6.9000026444e+06
0.86596529        	6.9000029489e+06
0.87137052        	6.9000032628e+06
0.87666441        	6.9000035772e+06
0.88190836        	6.9000038828e+06
0.88715231        	6.9000041706e+06
0.89239627        	6.9000044298e+06
0.89764022        	6.9000046508e+06
0.90291502        	6.9000048275e+06
0.90824922        	6.9000049570e+06
0.9136463         	6.9000050392e+06
0.91911879        	6.9000050781e+06
0.92468762        	6.9000050809e+06
0.93037024        	6.9000050566e+06
0.93621771        	6.9000050134e+06
0.94232746        	6.9000049581e+06
0.94874585        	6.9000048963e+06
0.95542725        	6.9000048330e+06
0.96227067        	6.9000047730e+06
0.96913054        	6.9000047196e+06
0.9759227         	6.9000046745e+06
0.98256698        	6.9000046390e+06
0.9890545         	6.9000046152e+06
0.99549303        	6.9000046073e+06
1.0018528         	6.9000046223e+06
1.0079335         	6.9000046671e+06
1.0138431         	6.9000047477e+06
1.0195491         	6.9000048658e+06
1.0250798         	6.9000050191e+06
1.0304763         	6.9000052022e+06
1.0357941         	6.9000054060e+06
1.0411004         	6.9000056177e+06
1.046424          	6.9000058179e+06
1.0517549         	6.9000059815e+06
1.0570859         	6.9000060827e+06
1.0624295         	6.9000061030e+06
1.0678175         	6.9000060354e+06
1.073265          	6.9000058869e+06
1.0788036         	6.9000056770e+06
1.0844349         	6.9000054327e+06
1.0901893         	6.9000051796e+06
1.0961352         	6.9000049348e+06
1.1022084         	6.9000047141e+06
1.1086814         	6.9000045159e+06
1.1153478         	6.9000043526e+06
1.1220917         	6.9000042262e+06
1.1288263         	6.9000041328e+06
1.1354891         	6.9000040663e+06
1.1420382         	6.9000040221e+06
1.1484674         	6.9000039996e+06
1.1547725         	6.9000040024e+06
1.160946          	6.9000040373e+06
1.1669735         	6.9000041110e+06
1.1728243         	6.9000042261e+06
1.1784865         	6.9000043787e+06
1.1840079         	6.9000045613e+06
1.189429          	6.9000047619e+06
1.19485           	6.9000049682e+06
