# Region type :   sampledSurface planeZ5
# Faces           : 966
# Area            : 8.2959466918e-02
# Scale factor    : 1.0000000000e+00
# Time            	areaAverage(H2)
0.0021681777      	0.0000000000e+00
0.0099229098      	0.0000000000e+00
0.013672321       	0.0000000000e+00
0.015830949       	0.0000000000e+00
0.018084996       	1.0049921189e-311
0.020504472       	3.6074289821e-282
0.022937971       	1.5429607324e-257
0.025399178       	1.3294046028e-235
0.027896967       	8.5709741848e-217
0.030624273       	2.9567707362e-200
0.034931782       	2.9563390778e-173
0.040906243       	2.0104598854e-151
0.047715234       	9.2477115382e-135
0.052397469       	1.8119026933e-126
0.055749718       	2.9479245891e-120
0.058724445       	1.0088174136e-114
0.061408972       	3.9911881876e-110
0.064030542       	6.8471169586e-106
0.066859301       	2.1502148478e-101
0.069929382       	1.2015304762e-96
0.073448452       	2.4859176578e-91
0.077645508       	6.6352085232e-85
0.082343589       	4.0924381657e-78
0.086876095       	1.9653994954e-72
0.090763315       	3.6553397614e-68
0.094101884       	8.7893986170e-65
0.097212628       	8.2756958066e-62
0.1003125         	5.2383734488e-59
0.10353884        	2.4036098915e-56
0.10697101        	7.1488180589e-54
0.11039961        	8.2460773899e-52
0.11345542        	2.8129945861e-50
0.1162904         	5.0235408863e-49
0.11915104        	7.2707191481e-48
0.12217829        	1.0194984207e-46
0.12526373        	1.2947732528e-45
0.12820817        	1.2598124336e-44
0.13099586        	9.1123123844e-44
0.13374612        	5.1782429161e-43
0.13659966        	2.4674825140e-42
0.13967523        	1.0594135288e-41
0.14299138        	4.2951171949e-41
0.14646759        	1.6723577807e-40
0.15008981        	6.6556867560e-40
0.15387799        	2.8112226680e-39
0.15755623        	1.0923566639e-38
0.16083132        	3.5242789905e-38
0.16380175        	9.8886828032e-38
0.16670485        	2.6556836174e-37
0.16976335        	7.4408522771e-37
0.1730982         	2.3101978457e-36
0.17658314        	7.9925482945e-36
0.17994126        	3.0159526504e-35
0.18308748        	1.3045971067e-34
0.18609598        	7.1147902569e-34
0.18905428        	5.2931136564e-33
0.19197925        	5.3918279293e-32
0.19489589        	7.1434543444e-31
0.19781252        	1.1046242908e-29
0.20072401        	1.7833197258e-28
0.20366191        	2.8668835248e-27
0.20666789        	4.6483119251e-26
0.2096902         	7.3154071442e-25
0.21266311        	1.0976408179e-23
0.2155666         	1.5835093967e-22
0.21841093        	2.2027481912e-21
0.22119744        	2.8470355176e-20
0.22390632        	3.2295520068e-19
0.22651648        	3.0694420921e-18
0.22903841        	2.4318712601e-17
0.23151192        	1.6577748269e-16
0.23400096        	1.0231313257e-15
0.23657196        	5.9767177692e-15
0.2392785         	3.4135660979e-14
0.24211876        	1.8716200307e-13
0.24501799        	9.3349014734e-13
0.2478834         	4.0625382816e-12
0.25065977        	1.5261778186e-11
0.2533459         	5.0412287281e-11
0.25597698        	1.5105262999e-10
0.25860067        	4.2233018723e-10
0.26126027        	1.1245404244e-09
0.26399007        	2.8838896668e-09
0.2668064         	7.1192402748e-09
0.26970988        	1.6788445124e-08
0.27267817        	3.7426778266e-08
0.27567758        	7.8543239132e-08
0.27866696        	1.5533689781e-07
0.28163078        	2.9163725893e-07
0.28457188        	5.2349033515e-07
0.28753883        	9.0752736241e-07
0.29052783        	1.5105211668e-06
0.29353486        	2.3975772981e-06
0.29659202        	3.6358299424e-06
0.29969018        	5.2737167484e-06
0.30301934        	7.5230237348e-06
0.30658026        	1.0633565813e-05
0.31024889        	1.4878715757e-05
0.31382774        	2.0385477402e-05
0.31720839        	2.7134663609e-05
0.32041107        	3.5198861849e-05
0.32351278        	4.4864099577e-05
0.32660124        	5.6668320557e-05
0.32975261        	7.1449684915e-05
0.33300475        	9.0356459023e-05
0.33633829        	1.1487501122e-04
0.33966879        	1.4674991807e-04
0.34291084        	1.8818408686e-04
0.34603661        	2.4251501698e-04
0.34907161        	3.1477177016e-04
0.35206544        	4.1175091801e-04
0.35505201        	5.4128861465e-04
0.35803859        	7.1156628614e-04
0.36101915        	9.3117844485e-04
0.36398392        	1.2100308548e-03
0.36693606        	1.5629438088e-03
0.36988068        	2.0109369591e-03
0.37279146        	2.5750364011e-03
0.3756348         	3.2735058576e-03
0.37839435        	4.1211896075e-03
0.38107617        	5.1361107252e-03
0.38370256        	6.3437712055e-03
0.38629891        	7.7755904166e-03
0.38888402        	9.4679025750e-03
0.39149716        	1.1482630727e-02
0.39416154        	1.3882437764e-02
0.3968771         	1.6702826837e-02
0.39971551        	2.0051337215e-02
0.40256148        	2.3779306218e-02
0.40538378        	2.7737990845e-02
0.40814127        	3.1687554666e-02
0.41083253        	3.5402368333e-02
0.41348665        	3.8701613301e-02
0.41614424        	4.1445710827e-02
0.41884293        	4.3535076923e-02
0.42160484        	4.4925370830e-02
0.42443343        	4.5649434706e-02
0.42731746        	4.5813438640e-02
0.43024079        	4.5562319254e-02
0.43319313        	4.5036578112e-02
0.43616409        	4.4347202384e-02
0.43914012        	4.3571932229e-02
0.44211842        	4.2758205409e-02
0.44511191        	4.1930130943e-02
0.44815399        	4.1093416376e-02
0.45128517        	4.0243201916e-02
0.45452847        	3.9373944301e-02
0.45788651        	3.8482337362e-02
0.46134183        	3.7569935686e-02
0.46485175        	3.6647680557e-02
0.46833233        	3.5740120043e-02
0.47169653        	3.4872307912e-02
0.47493032        	3.4048306761e-02
0.47808918        	3.3253089031e-02
0.48125065        	3.2465553412e-02
0.48447018        	3.1668910056e-02
0.48775734        	3.0854925141e-02
0.49106617        	3.0026400098e-02
0.49437499        	2.9178624398e-02
0.49761383        	2.8319315597e-02
0.50078567        	2.7438949209e-02
0.50388467        	2.6534545987e-02
0.50692466        	2.5603219953e-02
0.50992624        	2.4644343891e-02
0.51290826        	2.3662984776e-02
0.5158791         	2.2674342429e-02
0.51883476        	2.1704743874e-02
0.52176342        	2.0787627162e-02
0.52465176        	1.9956073134e-02
0.52749056        	1.9233208377e-02
0.53027645        	1.8624253204e-02
0.53301315        	1.8122274244e-02
0.53570778        	1.7731889052e-02
0.53837232        	1.7497629647e-02
0.54102325        	1.7518534537e-02
0.54367819        	1.7947051596e-02
0.54635955        	1.8988827893e-02
0.54908392        	2.0902647581e-02
0.55185645        	2.3990143868e-02
0.55465972        	2.8519019126e-02
0.55745829        	3.4563487855e-02
0.56022304        	4.1840858822e-02
0.56294948        	4.9683143181e-02
0.5656483         	5.7186195787e-02
0.56834313        	6.3509727551e-02
0.57105618        	6.8112782035e-02
0.57380366        	7.0866490712e-02
0.57659978        	7.1989878729e-02
0.57945291        	7.1875729957e-02
0.58236347        	7.0940078946e-02
0.58531995        	6.9528838666e-02
0.58831216        	6.7878855789e-02
0.59130904        	6.6139538375e-02
0.59430592        	6.4379973151e-02
0.59736167        	6.2600668917e-02
0.6004717         	6.0828415887e-02
0.60366859        	5.9065638685e-02
0.60695476        	5.7326860788e-02
0.61031304        	5.5627792651e-02
0.61372087        	5.3977976250e-02
0.61714804        	5.2386617900e-02
0.62054119        	5.0870052755e-02
0.62385362        	4.9436174891e-02
0.6270846         	4.8070132718e-02
0.63027734        	4.6738634771e-02
0.633484          	4.5402856114e-02
0.63672862        	4.4028370955e-02
0.64000158        	4.2586629968e-02
0.64327649        	4.1054031210e-02
0.64652965        	3.9411671918e-02
0.6497426         	3.7649093144e-02
0.65289591        	3.5770489693e-02
0.65597902        	3.3792020745e-02
0.65899774        	3.1735942519e-02
0.66197123        	2.9632261420e-02
0.66491892        	2.7526613037e-02
0.6678488         	2.5481688399e-02
0.67075798        	2.3560822265e-02
0.67363698        	2.1805338089e-02
0.67647638        	2.0222082961e-02
0.67927519        	1.8787352559e-02
0.68204058        	1.7476820031e-02
0.68477551        	1.6305338171e-02
0.68748856        	1.5338671210e-02
0.69017919        	1.4686331506e-02
0.69286982        	1.4465727039e-02
0.69556046        	1.4798518905e-02
0.69825109        	1.5803266352e-02
0.70096629        	1.7629839609e-02
0.70374493        	2.0503038781e-02
0.70653268        	2.4569483620e-02
0.70930527        	2.9869450065e-02
0.71205475        	3.6230462086e-02
0.71478633        	4.3221382168e-02
0.7175134         	5.0209099990e-02
0.72024913        	5.6519613546e-02
0.72300504        	6.1646447774e-02
0.72579475        	6.5375147471e-02
0.72863287        	6.7752386749e-02
0.7315286         	6.8981712963e-02
0.73448394        	6.9326208676e-02
0.73748823        	6.9041510484e-02
0.7405252         	6.8337764602e-02
0.74358482        	6.7365550139e-02
0.74667606        	6.6220605157e-02
0.74982135        	6.4960204326e-02
0.75303368        	6.3625391883e-02
0.75630901        	6.2252152246e-02
0.75962826        	6.0872697290e-02
0.76297836        	5.9507880349e-02
0.76634396        	5.8171523504e-02
0.76969894        	5.6872428914e-02
0.77300314        	5.5615523973e-02
0.77624904        	5.4387625810e-02
0.77945958        	5.3162127074e-02
0.78267197        	5.1904042380e-02
0.78591085        	5.0576605102e-02
0.78914974        	4.9158495167e-02
0.79238862        	4.7617709915e-02
0.79562751        	4.5926592991e-02
0.79886639        	4.4065472763e-02
0.80204051        	4.2067158309e-02
0.80512294        	3.9958824055e-02
0.80813876        	3.7741201599e-02
0.81110328        	3.5429246527e-02
0.81403366        	3.3047113688e-02
0.81694003        	3.0636126434e-02
0.81982267        	2.8252138443e-02
0.82267734        	2.5952422338e-02
0.82550227        	2.3780911173e-02
0.82830018        	2.1761801895e-02
0.83107644        	1.9913811357e-02
0.83383381        	1.8277134327e-02
0.83657093        	1.6930576427e-02
0.83928785        	1.5978996134e-02
0.84199091        	1.5529610873e-02
0.8446957         	1.5683388534e-02
0.84742031        	1.6544725028e-02
0.85017381        	1.8234555233e-02
0.85294861        	2.0882074240e-02
0.85572727        	2.4584122646e-02
0.85849547        	2.9334393380e-02
0.86125132        	3.4960516602e-02
0.86399945        	4.1094476499e-02
0.86675358        	4.7235437039e-02
0.86951569        	5.2837292519e-02
0.87229362        	5.7498799962e-02
0.87510067        	6.1035133513e-02
0.8779515         	6.3451043323e-02
0.88085782        	6.4875093042e-02
0.8838261         	6.5494101673e-02
0.88684074        	6.5503390922e-02
0.88989684        	6.5077277385e-02
0.89297901        	6.4353474735e-02
0.89609945        	6.3428192305e-02
0.89921989        	6.2384484974e-02
0.90242625        	6.1243191758e-02
0.90568947        	6.0048548623e-02
0.90897543        	5.8839339482e-02
0.91228709        	5.7632836048e-02
0.91561845        	5.6441373166e-02
0.91893778        	5.5276559395e-02
0.9222184         	5.4139092240e-02
0.92545948        	5.3015968241e-02
0.92868634        	5.1882701842e-02
0.9319132         	5.0715434020e-02
0.93514194        	4.9491089304e-02
0.93836663        	4.8188119718e-02
0.9415829         	4.6786454635e-02
0.94478765        	4.5269519811e-02
0.94796546        	4.3632056733e-02
0.95109391        	4.1879957075e-02
0.95415861        	4.0018360519e-02
0.95716308        	3.8044706558e-02
0.96012052        	3.5954029282e-02
0.9630423         	3.3748988862e-02
0.9659349         	3.1446683356e-02
0.96879894        	2.9083352949e-02
0.97163694        	2.6710238014e-02
0.97445249        	2.4387826812e-02
0.97725256        	2.2177878430e-02
0.98004175        	2.0151223422e-02
0.98281373        	1.8401960296e-02
0.98556542        	1.7036932184e-02
0.98829445        	1.6161596376e-02
0.99101667        	1.5865592189e-02
0.99373889        	1.6232159763e-02
0.99646111        	1.7339153672e-02
0.99918333        	1.9270299345e-02
1.0019416         	2.2158757507e-02
1.0047115         	2.6066579511e-02
1.0074761         	3.0931785181e-02
1.0102387         	3.6542835752e-02
1.0130061         	4.2518189109e-02
1.0157793         	4.8352718268e-02
1.0185612         	5.3572102780e-02
1.0213592         	5.7857267354e-02
1.0241868         	6.1083546246e-02
1.0270586         	6.3282120068e-02
1.0299837         	6.4579662282e-02
1.032962          	6.5146427632e-02
1.0359865         	6.5156045797e-02
1.0390512         	6.4759402213e-02
1.0421569         	6.4074493799e-02
1.0453105         	6.3187119163e-02
1.0485096         	6.2161345602e-02
1.0517396         	6.1049092893e-02
1.0549875         	5.9890268109e-02
1.0582542         	5.8711006535e-02
1.0615442         	5.7528070705e-02
1.0648451         	5.6354987983e-02
1.0681317         	5.5200280828e-02
1.0713907         	5.4060503987e-02
1.0746275         	5.2920800554e-02
1.0778597         	5.1758852664e-02
1.0810919         	5.0553249414e-02
1.0843224         	4.9282590416e-02
1.0875219         	4.7937846411e-02
1.0907214         	4.6487842633e-02
1.0939209         	4.4915660595e-02
1.0971204         	4.3207342907e-02
1.1003075         	4.1358303833e-02
1.1033492         	3.9441622139e-02
1.1063392         	3.7401594576e-02
1.1092883         	3.5231509999e-02
1.1122026         	3.2935843393e-02
1.1150842         	3.0535969408e-02
1.1179364         	2.8072847832e-02
1.1207656         	2.5606355287e-02
1.1235793         	2.3211986541e-02
1.1263824         	2.0979462584e-02
1.1291753         	1.9011845869e-02
1.1319532         	1.7422763849e-02
1.1347117         	1.6317802550e-02
1.1374539         	1.5779703194e-02
1.1401912         	1.5873296004e-02
1.1429339         	1.6660357886e-02
1.1456912         	1.8217620216e-02
1.1484603         	2.0636423184e-02
1.1512313         	2.3993980030e-02
1.1539978         	2.8302306823e-02
1.1567607         	3.3447989011e-02
1.1595324         	3.9172074526e-02
1.1623119         	4.5042500693e-02
1.1651007         	5.0579722069e-02
1.1679001         	5.5382137673e-02
1.1707212         	5.9224798969e-02
1.1735763         	6.2048346798e-02
1.1764754         	6.3918606148e-02
1.1794225         	6.4972960013e-02
1.1824165         	6.5374370256e-02
1.1854546         	6.5277164400e-02
1.1885334         	6.4811116826e-02
1.1916591         	6.4076306048e-02
1.1948066         	6.3156471071e-02
1.1979541         	6.2118268761e-02
