# Solver information
# Time            	H2_solver         	H2_initial        	H2_final          	H2_iters          	H2_converged      	U_solver          	Ux_initial        	Ux_final          	Ux_iters          	Uy_initial        	Uy_final          	Uy_iters          	Uz_initial        	Uz_final          	Uz_iters          	U_converged       	k_solver          	k_initial         	k_final           	k_iters           	k_converged       	omega_solver      	omega_initial     	omega_final       	omega_iters       	omega_converged   	p_rgh_solver      	p_rgh_initial     	p_rgh_final       	p_rgh_iters       	p_rgh_converged   
1.200048e-05      	DILUPBiCGStab	1.0000000000e+00	1.8702791200e-04	1	true	smoothSolver	1.0000000000e+00	1.9629642340e-12	4	1.0000000000e+00	3.8604131010e-12	4	1.0000000000e+00	2.8522566950e-08	2	false	DILUPBiCGStab	1.0000000000e+00	5.9891587620e-10	2	true	DILUPBiCGStab	4.1916798540e-04	1.1095173600e-10	1	true	DICPCG	5.8724757630e-01	9.8066229420e-04	3	true
2.6401747e-05     	DILUPBiCGStab	6.4779809770e-02	8.5100818640e-06	1	true	smoothSolver	3.2267316550e-01	1.4616341770e-08	2	1.5321606320e-01	1.9007487160e-08	2	1.9606484330e-01	4.7273185430e-09	2	false	DILUPBiCGStab	5.7882039650e-01	9.8700233730e-08	1	true	DILUPBiCGStab	2.0669899260e-04	5.3418380600e-08	1	true	DICPCG	4.6969147290e-01	1.6095395760e-03	3	true
4.3683268e-05     	DILUPBiCGStab	3.9457550250e-02	8.2635348480e-06	1	true	smoothSolver	2.5021730630e-01	7.9666701350e-09	2	1.0877866360e-01	1.1529388970e-08	2	1.4548724400e-01	2.8228898460e-09	2	false	DILUPBiCGStab	3.5585380930e-01	8.6871418180e-08	1	true	DILUPBiCGStab	2.2792714150e-04	7.0963746850e-08	1	true	DICPCG	3.9509127610e-01	2.7087917100e-03	3	true
6.4421093e-05     	DILUPBiCGStab	2.9944943510e-02	1.0261531870e-05	1	true	smoothSolver	2.0711925640e-01	6.7007106410e-09	2	8.7879464210e-02	9.2189135450e-09	2	1.2115577720e-01	2.5926268660e-09	2	false	DILUPBiCGStab	2.6122218960e-01	9.1468973450e-08	1	true	DILUPBiCGStab	2.5061223720e-04	9.4515676560e-08	1	true	DICPCG	3.4623910840e-01	1.4280190600e-03	4	true
8.9305451e-05     	DILUPBiCGStab	2.5025975880e-02	1.4187253320e-05	1	true	smoothSolver	1.7509545040e-01	7.7663493980e-09	2	7.5176484950e-02	9.2205654550e-09	2	1.0670893510e-01	3.3837358670e-09	2	false	DILUPBiCGStab	2.1567682000e-01	5.8005957660e-10	2	true	DILUPBiCGStab	2.7965454000e-04	1.3328273620e-10	1	true	DICPCG	3.4954708740e-01	2.3374110680e-03	4	true
0.00011916519     	DILUPBiCGStab	2.2026642100e-02	2.0791801340e-05	1	true	smoothSolver	1.4730630940e-01	1.1296146740e-08	2	6.6361232050e-02	1.0604044360e-08	2	9.7160889970e-02	4.9428660290e-09	2	false	DILUPBiCGStab	1.8996164080e-01	8.6461814230e-10	2	true	DILUPBiCGStab	3.1489004270e-04	1.9571549700e-10	1	true	DICPCG	3.7826777210e-01	1.9947591780e-03	5	true
0.00015499046     	DILUPBiCGStab	1.9979280030e-02	2.8686221090e-05	1	true	smoothSolver	1.1939280220e-01	1.9330351290e-08	2	5.9675088470e-02	1.3515434270e-08	2	9.0320213850e-02	7.7701717340e-09	2	false	DILUPBiCGStab	1.7248059360e-01	1.3354565790e-09	2	true	DILUPBiCGStab	3.5672655930e-04	2.9262192810e-10	1	true	DICPCG	4.0294627540e-01	2.6291211100e-03	6	true
0.00019797152     	DILUPBiCGStab	1.8459232430e-02	3.9691212670e-05	1	true	smoothSolver	8.9783763410e-02	3.7296006020e-08	2	5.4571234270e-02	1.8818217910e-08	2	8.5290712270e-02	1.3171503890e-08	2	false	DILUPBiCGStab	1.5875983150e-01	2.1020335580e-09	2	true	DILUPBiCGStab	4.0499442990e-04	4.4458282270e-10	1	true	DICPCG	3.9713590520e-01	3.2572774640e-03	7	true
0.00024954879     	DILUPBiCGStab	1.7250867020e-02	5.4430905950e-05	1	true	smoothSolver	7.6538928140e-02	8.1327366940e-08	2	5.0507209310e-02	2.8855049460e-08	2	8.1221121060e-02	2.3374289330e-08	2	false	DILUPBiCGStab	1.4721369690e-01	3.3496127270e-09	2	true	DILUPBiCGStab	4.5906337470e-04	6.8563710370e-10	1	true	DICPCG	3.5928899280e-01	2.9942204190e-03	8	true
0.00031142873     	DILUPBiCGStab	1.6219077280e-02	7.3304584590e-05	1	true	smoothSolver	1.1080323730e-01	5.8627394590e-11	4	4.7708906030e-02	4.5934304250e-08	2	7.8218576110e-02	4.0446560060e-08	2	false	DILUPBiCGStab	1.3796343830e-01	5.3795272590e-09	2	true	DILUPBiCGStab	5.2134643180e-04	1.0702565320e-09	1	true	DICPCG	3.0501669690e-01	3.0425421370e-03	9	true
0.000385657       	DILUPBiCGStab	1.5284376610e-02	9.9365142860e-05	1	true	smoothSolver	1.9270649190e-01	1.7541526840e-10	4	4.5069709760e-02	8.1225893420e-08	2	7.5576724370e-02	7.2426218530e-08	2	false	DILUPBiCGStab	1.3219141360e-01	8.6573292780e-09	2	true	DILUPBiCGStab	5.9748262820e-04	1.6796713870e-09	1	true	DICPCG	2.6180110190e-01	2.3091542700e-03	12	true
0.00047475749     	DILUPBiCGStab	1.4419216250e-02	1.3508703610e-04	1	true	smoothSolver	2.5851863850e-01	4.0788683670e-10	4	4.2261449510e-02	4.9696517460e-11	4	7.3018106280e-02	4.3388208550e-11	4	false	DILUPBiCGStab	1.3143427010e-01	1.3957817410e-08	2	true	DILUPBiCGStab	6.8079901270e-04	2.6861176990e-09	1	true	DICPCG	2.8945273660e-01	2.3764845890e-03	15	true
0.00058165893     	DILUPBiCGStab	1.3615362860e-02	1.7584336380e-04	1	true	smoothSolver	2.2496959100e-01	6.8956967230e-10	4	3.7640861160e-02	1.0095187220e-10	4	6.9524432820e-02	8.9698276130e-11	4	false	DILUPBiCGStab	1.3013527050e-01	2.2928512190e-08	2	true	DILUPBiCGStab	7.7070675210e-04	4.7362108210e-09	1	true	DICPCG	3.6054797460e-01	2.5197921460e-03	17	true
0.00070994066     	DILUPBiCGStab	1.2889983360e-02	2.1860033860e-04	1	true	smoothSolver	1.5890051600e-01	1.0209083080e-09	4	3.1007015300e-02	1.8747885840e-10	4	6.5667456080e-02	2.1634887750e-10	4	false	DILUPBiCGStab	1.2704724280e-01	3.9927057080e-08	2	true	DILUPBiCGStab	8.5609791040e-04	1.1141692800e-08	1	true	DICPCG	4.1863959140e-01	3.5582111550e-03	19	true
0.00086387873     	DILUPBiCGStab	1.2260933790e-02	2.6657908700e-04	1	true	smoothSolver	1.0369809390e-01	2.0189287190e-09	4	2.3010115860e-02	4.4221817050e-10	4	6.2503794340e-02	6.3819474060e-10	4	false	DILUPBiCGStab	1.2279395440e-01	7.1685886850e-08	2	true	DILUPBiCGStab	9.5240158200e-04	2.7763221440e-08	1	true	DICPCG	4.2925719710e-01	3.8360545720e-03	22	true
0.0010484898      	DILUPBiCGStab	1.1756424790e-02	3.1940933880e-04	1	true	smoothSolver	6.2683115300e-02	5.9639970200e-09	4	1.5773702910e-02	1.3869415010e-09	4	6.2113944500e-02	1.9674797730e-09	4	false	DILUPBiCGStab	1.1822201530e-01	2.9473574420e-09	2	true	DILUPBiCGStab	1.0627389610e-03	6.0762817890e-08	1	true	DICPCG	4.0127024530e-01	3.3739560520e-03	26	true
0.0012698578      	DILUPBiCGStab	1.1416441900e-02	3.8959509130e-04	1	true	smoothSolver	6.2838342610e-02	1.7400236510e-08	4	2.0967653720e-02	4.6533465320e-09	4	7.0397881400e-02	5.6636849800e-09	4	false	DILUPBiCGStab	1.1396256900e-01	5.6062853930e-09	2	true	DILUPBiCGStab	1.1833192750e-03	1.4175795830e-09	2	true	DICPCG	3.4675697090e-01	3.4083747650e-03	31	true
0.0015352614      	DILUPBiCGStab	1.1234430130e-02	4.8735009210e-04	1	true	smoothSolver	8.7935678260e-02	4.1722427700e-08	4	3.0574746730e-02	1.4454193700e-08	4	8.1366672730e-02	1.2991727310e-08	4	false	DILUPBiCGStab	1.1028230390e-01	1.0170511900e-08	2	true	DILUPBiCGStab	1.3148628810e-03	2.2762964670e-09	2	true	DICPCG	3.0159786090e-01	2.8824747370e-03	38	true
0.0018539175      	DILUPBiCGStab	1.1184841260e-02	6.4270676030e-04	1	true	smoothSolver	1.0381201200e-01	9.2745454330e-08	4	3.8693102230e-02	4.4508255620e-08	4	9.2832691930e-02	2.9927887930e-08	4	false	DILUPBiCGStab	1.0798832400e-01	1.8120125770e-08	2	true	DILUPBiCGStab	1.4550958310e-03	3.3125295000e-09	2	true	DICPCG	3.1164410280e-01	3.1140542350e-03	42	true
0.0022358089      	DILUPBiCGStab	1.1173420710e-02	8.6131390770e-04	1	true	smoothSolver	1.0479744940e-01	1.2884523030e-09	6	4.2333339790e-02	8.4192755260e-10	6	1.0185885460e-01	7.0425244250e-08	4	false	DILUPBiCGStab	1.0593719560e-01	3.2312197460e-08	2	true	DILUPBiCGStab	1.5906455020e-03	5.4116846570e-09	2	true	DICPCG	3.4057633920e-01	3.3591746990e-03	47	true
0.0026926509      	DILUPBiCGStab	1.1148558560e-02	6.3760684550e-05	1	true	smoothSolver	8.9922086630e-02	2.8995633230e-09	6	4.0533452500e-02	2.4339281240e-09	6	1.0708702650e-01	1.4693034190e-09	6	false	DILUPBiCGStab	1.0314184970e-01	5.6556877940e-08	2	true	DILUPBiCGStab	1.7188854010e-03	1.0140546290e-08	2	true	DICPCG	3.6025428330e-01	3.4181710030e-03	53	true
0.003224385       	DILUPBiCGStab	1.0671207130e-02	8.7424548540e-05	1	true	smoothSolver	6.6461115660e-02	4.4012938260e-09	6	3.4600300700e-02	4.5694568380e-09	6	1.0110789400e-01	3.0609762780e-09	6	false	DILUPBiCGStab	9.7478011890e-02	8.8780867620e-08	2	true	DILUPBiCGStab	1.8023810670e-03	1.8392856160e-08	2	true	DICPCG	3.4722428590e-01	3.2983645420e-03	60	true
0.0038330367      	DILUPBiCGStab	1.0135732730e-02	1.0181210280e-04	1	true	smoothSolver	6.4905200690e-02	5.6323736500e-09	6	3.0146012110e-02	5.7169672880e-09	6	9.4378383680e-02	5.3901749570e-09	6	false	DILUPBiCGStab	9.1324443950e-02	6.6808341630e-08	3	true	DILUPBiCGStab	1.8624354070e-03	2.7887775340e-08	2	true	DICPCG	3.1397256260e-01	2.9771646880e-03	66	true
0.0045199436      	DILUPBiCGStab	9.6230384870e-03	1.0156038010e-04	1	true	smoothSolver	8.2504792650e-02	1.8597694170e-08	6	3.0330007080e-02	6.2723842740e-09	6	8.7535698220e-02	8.2789948190e-09	6	false	DILUPBiCGStab	8.5376660620e-02	8.9071940610e-08	3	true	DILUPBiCGStab	1.9017122000e-03	3.8404387060e-08	2	true	DICPCG	2.7864507350e-01	2.6768104450e-03	76	true
0.005289944       	DILUPBiCGStab	9.2161318910e-03	9.5110930840e-05	1	true	smoothSolver	9.9613780870e-02	4.6701332640e-08	6	3.2163036690e-02	1.4943042910e-08	6	8.1127559550e-02	1.0795366650e-08	6	false	DILUPBiCGStab	8.0318443260e-02	6.5081710810e-08	3	true	DILUPBiCGStab	1.9294671730e-03	5.0990177990e-08	2	true	DICPCG	2.5042483120e-01	2.4747528200e-03	89	true
0.00610641        	DILUPBiCGStab	8.5117714700e-03	7.2570014720e-05	1	true	smoothSolver	1.0177784580e-01	6.3436506510e-08	6	3.2387120380e-02	2.5521129320e-08	6	7.3665632690e-02	1.0695614400e-08	6	false	DILUPBiCGStab	7.3013103100e-02	5.7437948130e-08	3	true	DILUPBiCGStab	1.8744723550e-03	5.7405345330e-08	2	true	DICPCG	2.1787158150e-01	2.1098951690e-03	98	true
0.006922876       	DILUPBiCGStab	7.5839617030e-03	5.0308984990e-05	1	true	smoothSolver	8.2758988710e-02	4.2204189330e-08	6	2.8707990620e-02	2.3236147540e-08	6	6.7238880900e-02	1.5249300030e-08	6	false	DILUPBiCGStab	6.4186012320e-02	4.6610506280e-08	3	true	DILUPBiCGStab	1.7493326870e-03	5.4294315760e-08	2	true	DICPCG	1.8174509740e-01	1.6264023070e-03	101	true
0.007725265       	DILUPBiCGStab	6.7806318120e-03	6.0307559600e-04	1	true	smoothSolver	6.4701508950e-02	2.3059817590e-08	6	2.3611758160e-02	1.4408605310e-08	6	6.0978437930e-02	1.9560728470e-08	6	false	DILUPBiCGStab	5.6673019540e-02	3.8136852240e-08	3	true	DILUPBiCGStab	1.6254445720e-03	5.0032468130e-08	2	true	DICPCG	1.5103825140e-01	1.3628536420e-03	101	true
0.0084878662      	DILUPBiCGStab	6.0098050360e-03	4.5453282350e-04	1	true	smoothSolver	5.5262428220e-02	2.2676284820e-08	6	1.9436983470e-02	6.9329178470e-09	6	5.4043179090e-02	2.0554182150e-08	6	false	DILUPBiCGStab	4.9690471520e-02	2.8685815690e-08	3	true	DILUPBiCGStab	1.4818985170e-03	4.2674380080e-08	2	true	DICPCG	1.2597839560e-01	1.2338554250e-03	98	true
0.0092028047      	DILUPBiCGStab	5.3160822640e-03	3.4328700500e-04	1	true	smoothSolver	4.6306715160e-02	1.6943465960e-08	6	1.7437324310e-02	5.5593566900e-09	6	4.7573091050e-02	1.8643855530e-08	6	false	DILUPBiCGStab	4.3813189850e-02	2.1006242550e-08	3	true	DILUPBiCGStab	1.3471193310e-03	3.6389015260e-08	2	true	DICPCG	1.0606874140e-01	1.0209381180e-03	95	true
0.0098607554      	DILUPBiCGStab	4.6547133800e-03	2.5258032740e-04	1	true	smoothSolver	3.9527179390e-02	1.0941630140e-08	6	1.6423564190e-02	5.0677898800e-09	6	4.1497948540e-02	1.4438853840e-08	6	false	DILUPBiCGStab	3.8528115220e-02	7.0568593450e-08	2	true	DILUPBiCGStab	1.2146549140e-03	2.9976002040e-08	2	true	DICPCG	8.9556464740e-02	8.5888276630e-04	90	true
0.010465717       	DILUPBiCGStab	4.1022995670e-03	1.8816252250e-04	1	true	smoothSolver	3.4065073050e-02	6.7700299050e-09	6	1.5145434870e-02	3.8719891520e-09	6	3.6399702610e-02	1.0635262490e-08	6	false	DILUPBiCGStab	3.4239327150e-02	4.6368913030e-08	2	true	DILUPBiCGStab	1.1013708610e-03	2.4763003120e-08	2	true	DICPCG	7.6492332330e-02	7.4843705550e-04	83	true
0.01102183        	DILUPBiCGStab	3.6417436720e-03	1.4197059830e-04	1	true	smoothSolver	2.8593340530e-02	3.9713152790e-09	6	1.3280267740e-02	2.5271193630e-09	6	3.2093175900e-02	7.5514770870e-09	6	false	DILUPBiCGStab	3.0674493360e-02	3.1299703550e-08	2	true	DILUPBiCGStab	1.0039113080e-03	2.0200743640e-08	2	true	DICPCG	6.6360758460e-02	6.5792819730e-04	77	true
0.011533199       	DILUPBiCGStab	3.2547094500e-03	1.0868041180e-04	1	true	smoothSolver	2.3543433720e-02	2.2388650040e-09	6	1.1152031200e-02	1.5084240710e-09	6	2.8445226570e-02	5.2261468810e-09	6	false	DILUPBiCGStab	2.7718849820e-02	2.1408015080e-08	2	true	DILUPBiCGStab	9.1913710630e-04	1.6226306430e-08	2	true	DICPCG	5.8525436380e-02	5.8008930800e-04	71	true
0.012008827       	DILUPBiCGStab	2.9557647010e-03	8.6613491460e-05	1	true	smoothSolver	1.9602963510e-02	1.3127200060e-09	6	9.2265075570e-03	9.0628240790e-10	6	2.5561966120e-02	3.7665978940e-09	6	false	DILUPBiCGStab	2.5464597500e-02	1.5498900080e-08	2	true	DILUPBiCGStab	8.5322080940e-04	1.3330513240e-08	2	true	DICPCG	5.2505620640e-02	5.1460416320e-04	67	true
0.012450994       	DILUPBiCGStab	2.6936496400e-03	6.9172356090e-05	1	true	smoothSolver	1.6582600360e-02	9.7969734320e-08	4	7.5847903040e-03	7.3055570320e-08	4	2.3026301170e-02	2.6558777350e-09	6	false	DILUPBiCGStab	2.3497967390e-02	1.1283863380e-08	2	true	DILUPBiCGStab	7.9390590680e-04	1.0747432820e-08	2	true	DICPCG	4.7456446770e-02	4.4846494970e-04	64	true
0.012863961       	DILUPBiCGStab	2.4736082890e-03	5.6154389430e-05	1	true	smoothSolver	1.4418773070e-02	6.5602730630e-08	4	6.3203865110e-03	4.7877166580e-08	4	2.0892101790e-02	1.8884182150e-09	6	false	DILUPBiCGStab	2.1849823330e-02	8.4387071620e-09	2	true	DILUPBiCGStab	7.4357704580e-04	8.7170838970e-09	2	true	DICPCG	4.3329542880e-02	4.2153802180e-04	59	true
0.013252961       	DILUPBiCGStab	2.2962315090e-03	4.6786337310e-05	1	true	smoothSolver	1.2847303490e-02	4.7195695260e-08	4	5.3944330740e-03	3.2470200540e-08	4	1.9160508440e-02	1.3899681420e-09	6	false	DILUPBiCGStab	2.0530089720e-02	6.5969569080e-09	2	true	DILUPBiCGStab	7.0311903900e-04	7.2599455450e-09	2	true	DICPCG	4.0093239240e-02	3.7961263340e-04	56	true
0.013622097       	DILUPBiCGStab	2.1514320100e-03	3.9849614500e-05	1	true	smoothSolver	1.1633426480e-02	3.6359327180e-08	4	4.7515151750e-03	2.3077822840e-08	4	1.7721914800e-02	1.0560536840e-09	6	false	DILUPBiCGStab	1.9456880650e-02	5.3709078260e-09	2	true	DILUPBiCGStab	6.7000892210e-04	6.2257082650e-09	2	true	DICPCG	3.7656718530e-02	3.5698670360e-04	53	true
0.013973227       	DILUPBiCGStab	2.0239852360e-03	3.4248760260e-05	1	true	smoothSolver	1.0577639570e-02	2.8990179360e-08	4	4.2756403420e-03	1.7102803900e-08	4	1.6452601330e-02	8.0601484450e-10	6	false	DILUPBiCGStab	1.8501018190e-02	4.4571427170e-09	2	true	DILUPBiCGStab	6.4005525030e-04	5.4375766450e-09	2	true	DICPCG	3.5860586080e-02	3.2012409530e-04	51	true
0.014307962       	DILUPBiCGStab	1.9108777530e-03	2.9610415760e-05	1	true	smoothSolver	9.6029695030e-03	2.3513862350e-08	4	3.8596277040e-03	1.2995898600e-08	4	1.5319206990e-02	8.9215418950e-08	4	false	DILUPBiCGStab	1.7643982670e-02	3.7558580810e-09	2	true	DILUPBiCGStab	6.1257859780e-04	4.8567643680e-09	2	true	DICPCG	3.4337991950e-02	3.3854971120e-04	48	true
0.014630112       	DILUPBiCGStab	1.8230579000e-03	2.6341342600e-05	1	true	smoothSolver	8.7174056750e-03	1.9654464650e-08	4	3.4928597570e-03	1.0474548630e-08	4	1.4409710600e-02	7.5060557760e-08	4	false	DILUPBiCGStab	1.6986332500e-02	3.3175656590e-09	2	true	DILUPBiCGStab	5.9139694320e-04	4.5896940130e-09	2	true	DICPCG	3.3107119750e-02	3.2826845060e-04	46	true
0.014940548       	DILUPBiCGStab	1.7432349320e-03	2.3557077730e-05	1	true	smoothSolver	7.8682651380e-03	1.6166737760e-08	4	3.1384762670e-03	8.5429958860e-09	4	1.3594984270e-02	6.3162442670e-08	4	false	DILUPBiCGStab	1.6382106180e-02	2.9557153490e-09	2	true	DILUPBiCGStab	5.7130719110e-04	4.4547010780e-09	2	true	DICPCG	3.1900000030e-02	3.0932100110e-04	45	true
0.015242177       	DILUPBiCGStab	1.6817295830e-03	2.1584552150e-05	1	true	smoothSolver	7.1463208850e-03	1.3544685400e-08	4	2.8089068000e-03	7.1909594420e-09	4	1.2956785350e-02	5.4924728290e-08	4	false	DILUPBiCGStab	1.5925092360e-02	2.7372503170e-09	2	true	DILUPBiCGStab	5.5595405040e-04	4.6660747270e-09	2	true	DICPCG	3.0856126930e-02	2.6391327130e-04	45	true
0.015535457       	DILUPBiCGStab	1.6246002270e-03	1.9853363600e-05	1	true	smoothSolver	6.4763299160e-03	1.1180881280e-08	4	2.4831871930e-03	5.9670703490e-09	4	1.2396072890e-02	4.7687310040e-08	4	false	DILUPBiCGStab	1.5491036330e-02	2.5428037360e-09	2	true	DILUPBiCGStab	5.4091139160e-04	5.1507612080e-09	2	true	DICPCG	2.9823692260e-02	2.8093030470e-04	43	true
0.015821777       	DILUPBiCGStab	1.5764885440e-03	1.8495183990e-05	1	true	smoothSolver	5.8791752400e-03	9.2467433540e-09	4	2.1794658390e-03	4.9612436190e-09	4	1.1955602780e-02	4.1999063520e-08	4	false	DILUPBiCGStab	1.5122735440e-02	2.4002147100e-09	2	true	DILUPBiCGStab	5.2759255590e-04	6.2465996960e-09	2	true	DICPCG	2.8900820850e-02	2.4518645460e-04	43	true
0.016102371       	DILUPBiCGStab	1.5361859250e-03	1.7435692740e-05	1	true	smoothSolver	5.3643397840e-03	7.6524389720e-09	4	1.9168000270e-03	4.1068925530e-09	4	1.1624199520e-02	3.7498304210e-08	4	false	DILUPBiCGStab	1.4814312530e-02	9.7968549710e-08	2	true	DILUPBiCGStab	5.1600366670e-04	8.3914720380e-09	2	true	DICPCG	2.8072509650e-02	2.5963221200e-04	42	true
0.016378351       	DILUPBiCGStab	1.5027232690e-03	1.6614060950e-05	1	true	smoothSolver	4.9356837460e-03	6.3439566680e-09	4	1.7373647260e-03	3.3434631630e-09	4	1.1398815350e-02	3.3914430500e-08	4	false	DILUPBiCGStab	1.4559091590e-02	9.5079790310e-08	2	true	DILUPBiCGStab	5.0585393420e-04	1.2597614390e-08	2	true	DICPCG	2.7313360600e-02	2.5456957280e-04	41	true
0.016650734       	DILUPBiCGStab	1.4753580800e-03	1.5996312740e-05	1	true	smoothSolver	4.5948203330e-03	5.2926136660e-09	4	1.6390185320e-03	2.7766199530e-09	4	1.1272004160e-02	3.1127260150e-08	4	false	DILUPBiCGStab	1.4350549470e-02	9.3153804180e-08	2	true	DILUPBiCGStab	4.9688206060e-04	2.1355422110e-08	2	true	DICPCG	2.6619010070e-02	2.3957392450e-04	41	true
0.016920472       	DILUPBiCGStab	1.4535143460e-03	1.5549802170e-05	1	true	smoothSolver	4.3585124000e-03	4.5488135280e-09	4	1.6190644730e-03	2.3855765020e-09	4	1.1225858760e-02	2.9057565390e-08	4	false	DILUPBiCGStab	1.4183288030e-02	9.1889823240e-08	2	true	DILUPBiCGStab	4.8928489480e-04	4.1340434000e-08	2	true	DICPCG	2.5992566850e-02	2.3652694170e-04	41	true
0.017188471       	DILUPBiCGStab	1.4367580070e-03	1.5254900970e-05	1	true	smoothSolver	4.2317240510e-03	4.1647888390e-09	4	1.6308259370e-03	2.0133615030e-09	4	1.1233950690e-02	2.7540374740e-08	4	false	DILUPBiCGStab	1.4054600610e-02	9.1499259740e-08	2	true	DILUPBiCGStab	4.8285011770e-04	5.8334719150e-08	2	true	DICPCG	2.5458189620e-02	2.3734141310e-04	41	true
0.017455605       	DILUPBiCGStab	1.4247827360e-03	1.5104200420e-05	1	true	smoothSolver	4.1944064900e-03	4.1366468030e-09	4	1.6709575730e-03	1.7493547380e-09	4	1.1275273140e-02	2.6606463020e-08	4	false	DILUPBiCGStab	1.3965693960e-02	9.2108522030e-08	2	true	DILUPBiCGStab	4.7741560500e-04	8.8950553980e-08	2	true	DICPCG	2.5031038630e-02	2.3092130920e-04	41	true
0.017722739       	DILUPBiCGStab	1.4173785600e-03	1.5085625350e-05	1	true	smoothSolver	4.2492293170e-03	4.5234683870e-09	4	1.7779593330e-03	1.9639586570e-09	4	1.1338734960e-02	2.6120424520e-08	4	false	DILUPBiCGStab	1.3916973070e-02	9.3771179040e-08	2	true	DILUPBiCGStab	4.7291958400e-04	6.2953669110e-08	2	true	DICPCG	2.4752163650e-02	2.3865874050e-04	41	true
0.017989873       	DILUPBiCGStab	1.4099691190e-03	1.5059897880e-05	1	true	smoothSolver	4.4477164520e-03	5.4123528940e-09	4	1.9715533850e-03	2.6901282510e-09	4	1.1385333100e-02	2.5780369760e-08	4	false	DILUPBiCGStab	1.3865890230e-02	9.5311013970e-08	2	true	DILUPBiCGStab	4.6790776120e-04	3.0650302330e-08	2	true	DICPCG	2.4541120890e-02	2.4081578210e-04	41	true
0.018258759       	DILUPBiCGStab	1.4114990630e-03	1.5306643940e-05	1	true	smoothSolver	4.7448814930e-03	6.7182925650e-09	4	2.1806075610e-03	3.6086016310e-09	4	1.1491396520e-02	2.6133972380e-08	4	false	DILUPBiCGStab	1.3896189520e-02	9.9130059410e-08	2	true	DILUPBiCGStab	4.6562072850e-04	1.4648187470e-08	2	true	DICPCG	2.4508162550e-02	2.2874880730e-04	43	true
0.018529425       	DILUPBiCGStab	1.4130157670e-03	1.5559372390e-05	1	true	smoothSolver	5.0602634420e-03	8.1471610240e-09	4	2.3721077490e-03	4.5666877490e-09	4	1.1577536860e-02	2.6289061060e-08	4	false	DILUPBiCGStab	1.3923853030e-02	2.7296045440e-09	2	true	DILUPBiCGStab	4.6326766810e-04	9.9071546610e-09	2	true	DICPCG	2.4537009870e-02	2.3847018160e-04	44	true
0.018801902       	DILUPBiCGStab	1.4145056470e-03	1.5817907420e-05	1	true	smoothSolver	5.3710952040e-03	9.5575098520e-09	4	2.5339579310e-03	5.4866619130e-09	4	1.1634724830e-02	2.6223941260e-08	4	false	DILUPBiCGStab	1.3947635270e-02	2.8823744420e-09	2	true	DILUPBiCGStab	4.6070985820e-04	7.8393546700e-09	2	true	DICPCG	2.4639976960e-02	2.3307061750e-04	45	true
0.019077149       	DILUPBiCGStab	1.4206679750e-03	1.6227555090e-05	1	true	smoothSolver	5.6670619070e-03	1.1046465310e-08	4	2.6635569320e-03	6.4275479690e-09	4	1.1698670880e-02	2.6338517940e-08	4	false	DILUPBiCGStab	1.4013140580e-02	3.0842931900e-09	2	true	DILUPBiCGStab	4.5970469130e-04	7.0432487560e-09	2	true	DICPCG	2.4881258110e-02	2.1895750850e-04	46	true
0.019356194       	DILUPBiCGStab	1.4317572550e-03	1.6802840450e-05	1	true	smoothSolver	5.9314055360e-03	1.2613022420e-08	4	2.7568982370e-03	7.3752076410e-09	4	1.1769835520e-02	2.6615713610e-08	4	false	DILUPBiCGStab	1.4111446570e-02	3.3425865000e-09	2	true	DILUPBiCGStab	4.5987282650e-04	7.3007605310e-09	2	true	DICPCG	2.5404129400e-02	2.3598373890e-04	46	true
0.019638165       	DILUPBiCGStab	1.4382918990e-03	1.7232217300e-05	1	true	smoothSolver	6.1089014800e-03	1.3775422630e-08	4	2.7881303110e-03	8.0397372660e-09	4	1.1774670130e-02	2.6304461570e-08	4	false	DILUPBiCGStab	1.4150600650e-02	3.5639295090e-09	2	true	DILUPBiCGStab	4.5849559570e-04	8.0578282380e-09	2	true	DICPCG	2.5990612280e-02	2.5320769470e-04	46	true
0.01992415        	DILUPBiCGStab	1.4500619290e-03	1.7848137530e-05	1	true	smoothSolver	6.2169454820e-03	1.4862043680e-08	4	2.7702813910e-03	8.6235865030e-09	4	1.1796406230e-02	2.6289317780e-08	4	false	DILUPBiCGStab	1.4227429550e-02	3.8568243250e-09	2	true	DILUPBiCGStab	4.5834980800e-04	9.0337343060e-09	2	true	DICPCG	2.6644300560e-02	2.5746664900e-04	49	true
0.02021428        	DILUPBiCGStab	1.4623598530e-03	1.8506954620e-05	1	true	smoothSolver	6.2241706330e-03	1.5559218610e-08	4	2.6925234970e-03	8.9515106670e-09	4	1.1805666090e-02	2.5966424410e-08	4	false	DILUPBiCGStab	1.4297998560e-02	4.1736819310e-09	2	true	DILUPBiCGStab	4.5803003850e-04	1.0546153410e-08	2	true	DICPCG	2.7269090050e-02	2.3851378100e-04	50	true
0.02050761        	DILUPBiCGStab	1.4699580930e-03	1.9032840340e-05	1	true	smoothSolver	6.1089434550e-03	1.5491285500e-08	4	2.5513009450e-03	8.8278391930e-09	4	1.1781608990e-02	2.4850849960e-08	4	false	DILUPBiCGStab	1.4303664180e-02	4.4519596610e-09	2	true	DILUPBiCGStab	4.5602576750e-04	1.2234172070e-08	2	true	DICPCG	2.7772250270e-02	2.6198697060e-04	50	true
0.020805334       	DILUPBiCGStab	1.4833531640e-03	1.9788527320e-05	1	true	smoothSolver	5.9260444160e-03	1.5165796980e-08	4	2.3888125990e-03	8.5474811240e-09	4	1.1840682060e-02	2.3806345890e-08	4	false	DILUPBiCGStab	1.4337512940e-02	4.8112474410e-09	2	true	DILUPBiCGStab	4.5557057080e-04	1.5081881430e-08	2	true	DICPCG	2.8255215030e-02	2.5141094040e-04	51	true
0.021106455       	DILUPBiCGStab	1.4919192410e-03	2.0388239760e-05	1	true	smoothSolver	5.6513309310e-03	1.4065804510e-08	4	2.2108435550e-03	7.7936990750e-09	4	1.1935400020e-02	2.2335401230e-08	4	false	DILUPBiCGStab	1.4312857110e-02	5.1042105570e-09	2	true	DILUPBiCGStab	4.5382061450e-04	1.7192982820e-08	2	true	DICPCG	2.8590429190e-02	2.7088474240e-04	51	true
0.021411063       	DILUPBiCGStab	1.5009507970e-03	2.1027559200e-05	1	true	smoothSolver	5.3389968270e-03	1.2629308960e-08	4	2.0258272180e-03	6.7665627150e-09	4	1.2126123070e-02	2.0974846950e-08	4	false	DILUPBiCGStab	1.4285599220e-02	5.4084541790e-09	2	true	DILUPBiCGStab	4.5231255710e-04	1.8179055160e-08	2	true	DICPCG	2.8844053550e-02	2.5343307520e-04	52	true
0.021718051       	DILUPBiCGStab	1.5046980130e-03	2.1489654330e-05	1	true	smoothSolver	5.0092877010e-03	1.0895210430e-08	4	1.8337047500e-03	5.4094397440e-09	4	1.2347099690e-02	1.9438948570e-08	4	false	DILUPBiCGStab	1.4210566040e-02	5.6320892710e-09	2	true	DILUPBiCGStab	4.4952778520e-04	1.8654890300e-08	2	true	DICPCG	2.8957091460e-02	2.6164062460e-04	52	true
0.022027466       	DILUPBiCGStab	1.5086523330e-03	2.1989548660e-05	1	true	smoothSolver	4.7285264830e-03	9.4610811520e-09	4	1.6613344070e-03	4.0010135350e-09	4	1.2613850410e-02	1.8373715220e-08	4	false	DILUPBiCGStab	1.4139145450e-02	5.8534527380e-09	2	true	DILUPBiCGStab	4.4686630340e-04	2.0256722790e-08	2	true	DICPCG	2.9001119990e-02	2.6641562950e-04	52	true
0.022338113       	DILUPBiCGStab	1.5068531310e-03	2.2264927430e-05	1	true	smoothSolver	4.5699052780e-03	8.8638968390e-09	4	1.5789576650e-03	3.2799178650e-09	4	1.2865628200e-02	1.7391211010e-08	4	false	DILUPBiCGStab	1.4020609940e-02	5.9664686540e-09	2	true	DILUPBiCGStab	4.4273718060e-04	2.9300488240e-08	2	true	DICPCG	2.8921167430e-02	2.6304264240e-04	52	true
0.022650009       	DILUPBiCGStab	1.5049058770e-03	2.2534152950e-05	1	true	smoothSolver	4.6071582990e-03	9.4955870280e-09	4	1.6379601250e-03	3.8772399960e-09	4	1.3145439470e-02	1.6686973080e-08	4	false	DILUPBiCGStab	1.3906819620e-02	6.0598143870e-09	2	true	DILUPBiCGStab	4.3889926740e-04	4.1184019870e-08	2	true	DICPCG	2.8791270350e-02	2.5644045510e-04	52	true
0.022961904       	DILUPBiCGStab	1.4967636540e-03	2.2544239730e-05	1	true	smoothSolver	4.7011495080e-03	1.0288831250e-08	4	1.7487401600e-03	4.5373752640e-09	4	1.3391358690e-02	1.5502243040e-08	4	false	DILUPBiCGStab	1.3747941830e-02	6.0230464070e-09	2	true	DILUPBiCGStab	4.3385550020e-04	5.6686849890e-08	2	true	DICPCG	2.8560064230e-02	2.8196466770e-04	51	true
0.023273799       	DILUPBiCGStab	1.4881122320e-03	2.2553967040e-05	1	true	smoothSolver	4.7930105930e-03	1.1037248710e-08	4	1.8903207460e-03	5.1015149100e-09	4	1.3651791390e-02	1.4342865680e-08	4	false	DILUPBiCGStab	1.3594003040e-02	5.9573622820e-09	2	true	DILUPBiCGStab	4.2906048400e-04	8.2469406370e-08	2	true	DICPCG	2.8308513180e-02	2.6189524550e-04	51	true
0.023585694       	DILUPBiCGStab	1.4787519060e-03	2.2540020430e-05	1	true	smoothSolver	4.8461683280e-03	1.1617414110e-08	4	2.0157045170e-03	5.4464995580e-09	4	1.3926653100e-02	1.3211230640e-08	4	false	DILUPBiCGStab	1.3448269830e-02	5.8838274940e-09	2	true	DILUPBiCGStab	4.2444463740e-04	3.3769905740e-09	2	true	DICPCG	2.8079686490e-02	2.6375674540e-04	50	true
0.023897589       	DILUPBiCGStab	1.4684852610e-03	2.2486243700e-05	1	true	smoothSolver	4.8403172810e-03	1.1845396210e-08	4	2.1142792600e-03	5.5096186840e-09	4	1.4201561510e-02	1.1983739190e-08	4	false	DILUPBiCGStab	1.3310521890e-02	5.8055461490e-09	2	true	DILUPBiCGStab	4.2008276580e-04	2.1253094620e-08	2	true	DICPCG	2.7942028680e-02	2.6622464520e-04	48	true
0.024208211       	DILUPBiCGStab	1.4513543700e-03	2.2141967750e-05	1	true	smoothSolver	4.7577244610e-03	1.1465956920e-08	4	2.1789049020e-03	5.1963962200e-09	4	1.4420508850e-02	1.1145362370e-08	4	false	DILUPBiCGStab	1.3130710460e-02	5.6244716070e-09	2	true	DILUPBiCGStab	4.1443534960e-04	4.7311544750e-09	2	true	DICPCG	2.7853497930e-02	2.5349562070e-04	48	true
0.024518833       	DILUPBiCGStab	1.4388493980e-03	2.1991092660e-05	1	true	smoothSolver	4.6446478080e-03	1.1034727860e-08	4	2.2173550800e-03	4.7806986370e-09	4	1.4686404340e-02	1.0970931060e-08	4	false	DILUPBiCGStab	1.3006443380e-02	5.5709826460e-09	2	true	DILUPBiCGStab	4.1033346390e-04	8.2077954440e-08	2	true	DICPCG	2.7891534410e-02	2.5285197910e-04	48	true
0.024828182       	DILUPBiCGStab	1.4193257740e-03	2.1528148530e-05	1	true	smoothSolver	4.4834328660e-03	1.0263868260e-08	4	2.2184255780e-03	4.1581630310e-09	4	1.4890560160e-02	1.0431664470e-08	4	false	DILUPBiCGStab	1.2841819260e-02	5.4484034500e-09	2	true	DILUPBiCGStab	4.0474177080e-04	5.2086726410e-08	2	true	DICPCG	2.7903755180e-02	2.4752920920e-04	48	true
0.025137531       	DILUPBiCGStab	1.4041566890e-03	2.1232815110e-05	1	true	smoothSolver	4.3257737280e-03	9.6636690130e-09	4	2.2086217650e-03	3.5986988550e-09	4	1.5151974310e-02	1.0079415100e-08	4	false	DILUPBiCGStab	1.2731523810e-02	5.4655283820e-09	2	true	DILUPBiCGStab	4.0070041860e-04	3.7618628910e-08	2	true	DICPCG	2.8001814100e-02	2.3853825090e-04	48	true
0.02544688        	DILUPBiCGStab	1.3875475510e-03	2.0868003370e-05	1	true	smoothSolver	4.1713536550e-03	9.1183322800e-09	4	2.1860644350e-03	3.0355163610e-09	4	1.5420297270e-02	1.0366078930e-08	4	false	DILUPBiCGStab	1.2625066750e-02	5.5686998480e-09	2	true	DILUPBiCGStab	3.9667738180e-04	2.9282194790e-08	2	true	DICPCG	2.8073792450e-02	2.2753526270e-04	48	true
0.025756229       	DILUPBiCGStab	1.3695204240e-03	2.0434205980e-05	1	true	smoothSolver	4.0446413400e-03	8.6935302470e-09	4	2.1596903760e-03	2.5348560570e-09	4	1.5702920830e-02	1.0789090200e-08	4	false	DILUPBiCGStab	1.2520346230e-02	5.7981637590e-09	2	true	DILUPBiCGStab	3.9253158860e-04	2.3101893230e-08	2	true	DICPCG	2.8137703530e-02	2.7770781630e-04	47	true
0.026065578       	DILUPBiCGStab	1.3501594430e-03	1.9931881750e-05	1	true	smoothSolver	3.9809011810e-03	8.5208351860e-09	4	2.1684247990e-03	2.3364368900e-09	4	1.5997431460e-02	1.1105970380e-08	4	false	DILUPBiCGStab	1.2422941860e-02	6.3609976950e-09	2	true	DILUPBiCGStab	3.8837261920e-04	1.8827661500e-08	2	true	DICPCG	2.8205690080e-02	2.7462561300e-04	47	true