# Region type :   sampledSurface planeZ5p
# Faces           : 966
# Area            : 8.2959467500e-02
# Scale factor    : 1.0000000000e+00
# Time            	areaAverage(p_rgh)
0.0022201342      	6.8999999995e+06
0.0092362185      	6.9000023050e+06
0.01329353        	6.9000269232e+06
0.017032701       	6.9002153781e+06
0.020824973       	6.9008834013e+06
0.02425977        	6.9036946110e+06
0.02755924        	6.9148959415e+06
0.030546514       	6.9333593320e+06
0.03329083        	6.9456882950e+06
0.035986112       	6.9469894976e+06
0.038646928       	6.9457343082e+06
0.041237274       	6.9456662542e+06
0.043779756       	6.9448538411e+06
0.046250846       	6.9420733036e+06
0.048613841       	6.9355535658e+06
0.050901729       	6.9249627837e+06
0.053161592       	6.9130769138e+06
0.055398989       	6.9045738238e+06
0.057607046       	6.9016523413e+06
0.059791216       	6.9019751145e+06
0.061940518       	6.9023484428e+06
0.064031554       	6.9020388125e+06
0.066061852       	6.9015597455e+06
0.068047089       	6.9011111548e+06
0.069995134       	6.9007267835e+06
0.071910281       	6.9004483959e+06
0.07380231        	6.9002437112e+06
0.075680105       	6.9000781989e+06
0.077539503       	6.8999791458e+06
0.079373814       	6.8999724038e+06
0.081183256       	6.9000328751e+06
0.08297507        	6.9001231504e+06
0.084752428       	6.9002409051e+06
0.086517486       	6.9004017126e+06
0.088272663       	6.9005901270e+06
0.09001732        	6.9007540564e+06
0.091743793       	6.9008470326e+06
0.093447206       	6.9008554144e+06
0.095127409       	6.9007718674e+06
0.096781083       	6.9005511733e+06
0.09843181        	6.9000765908e+06
0.10008137        	6.8991508808e+06
0.10170691        	6.8975288172e+06
0.10332816        	6.8949045546e+06
0.10494243        	6.8910412623e+06
0.10654737        	6.8858965368e+06
0.10814182        	6.8797377883e+06
0.10972515        	6.8731660475e+06
0.11129903        	6.8669861021e+06
0.11286693        	6.8619733302e+06
0.11443111        	6.8586230250e+06
0.11599079        	6.8569730099e+06
0.11754478        	6.8566255687e+06
0.11909147        	6.8570136869e+06
0.12062904        	6.8577388404e+06
0.12215766        	6.8587467759e+06
0.12367987        	6.8602585839e+06
0.12519791        	6.8625775694e+06
0.12671249        	6.8659204923e+06
0.12822341        	6.8703204159e+06
0.12972916        	6.8755735384e+06
0.13122777        	6.8812346480e+06
0.13271891        	6.8867016753e+06
0.13420429        	6.8913764291e+06
0.13568575        	6.8948402031e+06
0.13716482        	6.8969820311e+06
0.13864155        	6.8980124233e+06
0.14011517        	6.8983506267e+06
0.14158463        	6.8984328782e+06
0.14305087        	6.8985516004e+06
0.14451581        	6.8988090779e+06
0.1459823         	6.8991768558e+06
0.14745128        	6.8995855738e+06
0.14892118        	6.8999825131e+06
0.15039107        	6.9003430662e+06
0.15185867        	6.9006567072e+06
0.15332347        	6.9009170233e+06
0.1547861         	6.9011191184e+06
0.15624577        	6.9012580369e+06
0.15770034        	6.9013274939e+06
0.15914792        	6.9013226663e+06
0.16058786        	6.9012449075e+06
0.16202099        	6.9011026334e+06
0.16344833        	6.9009087547e+06
0.16486832        	6.9006791894e+06
0.16627873        	6.9004324753e+06
0.16767759        	6.9001897397e+06
0.16906414        	6.8999739911e+06
0.1704376         	6.8998083459e+06
0.17179527        	6.8997133222e+06
0.17313264        	6.8997062871e+06
0.1744445         	6.8998061100e+06
0.17572672        	6.9000409861e+06
0.17697529        	6.9004535198e+06
0.17818528        	6.9010983274e+06
0.17935189        	6.9020325649e+06
0.18047           	6.9033010392e+06
0.18153739        	6.9049265697e+06
0.18255379        	6.9069045849e+06
0.18352157        	6.9092063937e+06
0.18444449        	6.9117836591e+06
0.18532572        	6.9145694722e+06
0.1861697         	6.9174903699e+06
0.1869803         	6.9204675692e+06
0.18776184        	6.9234259447e+06
0.18851838        	6.9262960956e+06
0.18925339        	6.9290161229e+06
0.18997039        	6.9315364423e+06
0.19067224        	6.9338182791e+06
0.19136102        	6.9358344871e+06
0.19203886        	6.9375717496e+06
0.1927069         	6.9390273128e+06
0.19336635        	6.9402103920e+06
0.19401838        	6.9411394799e+06
0.19466355        	6.9418390107e+06
0.19530352        	6.9423384582e+06
0.19593856        	6.9426672568e+06
0.19656932        	6.9428544704e+06
0.1971988         	6.9429262913e+06
0.19782213        	6.9429039008e+06
0.19844438        	6.9428036027e+06
0.19906663        	6.9426348353e+06
0.19968888        	6.9424011997e+06
0.200308          	6.9421023304e+06
0.20092287        	6.9417330157e+06
0.20153648        	6.9412815298e+06
0.20214908        	6.9407343704e+06
0.202761          	6.9400765503e+06
0.20337249        	6.9392933588e+06
0.20398386        	6.9383714711e+06
0.20459523        	6.9373004572e+06
0.20520661        	6.9360738676e+06
0.20581815        	6.9346897718e+06
0.20642987        	6.9331520802e+06
0.20704186        	6.9314702690e+06
0.20765417        	6.9296596218e+06
0.20826693        	6.9277408011e+06
0.20888028        	6.9257396163e+06
0.20949437        	6.9236864547e+06
0.21010934        	6.9216153382e+06
0.21072529        	6.9195627493e+06
0.21134229        	6.9175660339e+06
0.21196045        	6.9156611824e+06
0.2125799         	6.9138808499e+06
0.21320061        	6.9122527558e+06
0.21382244        	6.9107976226e+06
0.21444534        	6.9095276207e+06
0.21506938        	6.9084459629e+06
0.21569458        	6.9075472306e+06
0.21632102        	6.9068184097e+06
0.21694873        	6.9062407300e+06
0.21757776        	6.9057916754e+06
0.21820802        	6.9054467881e+06
0.21883945        	6.9051814456e+06
0.21947196        	6.9049725357e+06
0.22010543        	6.9047997189e+06
0.2207398         	6.9046461770e+06
0.22137503        	6.9044989861e+06
0.2220111         	6.9043491281e+06
0.22264803        	6.9041912926e+06
0.22328582        	6.9040234595e+06
0.2239244         	6.9038463018e+06
0.22456373        	6.9036624102e+06
0.22520378        	6.9034754648e+06
0.22584445        	6.9032894115e+06
0.2264857         	6.9031076236e+06
0.22712754        	6.9029323835e+06
0.22777002        	6.9027647695e+06
0.22841323        	6.9026049561e+06
0.22905731        	6.9024526649e+06
0.22970244        	6.9023076368e+06
0.23034874        	6.9021700331e+06
0.23099633        	6.9020407577e+06
0.23164529        	6.9019215424e+06
0.23229574        	6.9018146188e+06
0.23294777        	6.9017221980e+06
0.23360143        	6.9016459555e+06
0.2342569         	6.9015867295e+06
0.23491425        	6.9015444607e+06
0.2355736         	6.9015183281e+06
0.23623507        	6.9015071171e+06
0.2368987         	6.9015095871e+06
0.23756454        	6.9015246142e+06
0.23823254        	6.9015510652e+06
0.23890264        	6.9015874523e+06
0.23957474        	6.9016315714e+06
0.24024885        	6.9016804290e+06
0.24092487        	6.9017304104e+06
0.24160283        	6.9017775766e+06
0.24228276        	6.9018180585e+06
0.24296466        	6.9018485905e+06
0.24364845        	6.9018669853e+06
0.24433408        	6.9018722440e+06
0.24502145        	6.9018642434e+06
0.24571045        	6.9018432882e+06
0.24640096        	6.9018096893e+06
0.2470929         	6.9017633452e+06
0.24778622        	6.9017035025e+06
0.24848086        	6.9016288511e+06
0.24917683        	6.9015377653e+06
0.24987407        	6.9014284349e+06
0.25057264        	6.9012987003e+06
0.25127243        	6.9011458153e+06
0.25197345        	6.9009659273e+06
0.25267567        	6.9007535377e+06
0.25337917        	6.9005009773e+06
0.254084          	6.9001982092e+06
0.2547903         	6.8998329472e+06
0.25549822        	6.8993911949e+06
0.2562079         	6.8988579089e+06
0.25691957        	6.8982173609e+06
0.25763324        	6.8974538771e+06
0.25834914        	6.8965518592e+06
0.25906727        	6.8954967671e+06
0.2597877         	6.8942755389e+06
0.26051056        	6.8928777079e+06
0.26123591        	6.8912969506e+06
0.26196382        	6.8895325031e+06
0.26269431        	6.8875906183e+06
0.26342746        	6.8854853267e+06
0.26416315        	6.8832394976e+06
0.26490145        	6.8808836012e+06
0.26564225        	6.8784559386e+06
0.26638549        	6.8760004040e+06
0.26713121        	6.8735647189e+06
0.26787938        	6.8711988470e+06
0.26863005        	6.8689523439e+06
0.26938329        	6.8668716028e+06
0.27013913        	6.8649971596e+06
0.27089756        	6.8633606720e+06
0.27165852        	6.8619825262e+06
0.27242209        	6.8608702913e+06
0.27318826        	6.8600194315e+06
0.27395702        	6.8594147298e+06
0.2747285         	6.8590333265e+06
0.27550259        	6.8588491902e+06
0.27627938        	6.8588372708e+06
0.27705891        	6.8589775126e+06
0.27784122        	6.8592575163e+06
0.27862624        	6.8596736487e+06
0.27941401        	6.8602309681e+06
0.28020436        	6.8609414689e+06
0.28099731        	6.8618217834e+06
0.28179317        	6.8628902577e+06
0.28259166        	6.8641622384e+06
0.28339289        	6.8656477585e+06
0.28419664        	6.8673472226e+06
0.28500337        	6.8692512558e+06
0.2858126         	6.8713359156e+06
0.28662451        	6.8735662416e+06
0.28743901        	6.8758956654e+06
0.28825616        	6.8782694241e+06
0.28907603        	6.8806276086e+06
0.28989868        	6.8829090730e+06
0.290724          	6.8850551868e+06
0.29155222        	6.8870155397e+06
0.29238395        	6.8887518075e+06
0.29321826        	6.8902372691e+06
0.29405551        	6.8914649271e+06
0.29489711        	6.8924453803e+06
0.29574056        	6.8931998214e+06
0.29658991        	6.8937666558e+06
0.29744243        	6.8941848620e+06
0.29829495        	6.8944958947e+06
0.29914748        	6.8947386344e+06
0.3               	6.8949438244e+06
0.30087212        	6.8951371539e+06
0.30174995        	6.8953282100e+06
0.30263384        	6.8955227596e+06
0.303524          	6.8957211700e+06
0.30442049        	6.8959206870e+06
0.30532328        	6.8961174325e+06
0.30623227        	6.8963077721e+06
0.30714718        	6.8964888637e+06
0.30806764        	6.8966584713e+06
0.3089932         	6.8968143063e+06
0.30992301        	6.8969534789e+06
0.3108566         	6.8970727183e+06
0.31179355        	6.8971688168e+06
0.31273348        	6.8972393678e+06
0.31367601        	6.8972836789e+06
0.31462107        	6.8973033935e+06
0.31556863        	6.8973022475e+06
0.31651866        	6.8972856286e+06
0.31747133        	6.8972602560e+06
0.3184268         	6.8972335408e+06
0.3193852         	6.8972129075e+06
0.32034685        	6.8972053000e+06
0.32131212        	6.8972166959e+06
0.32228143        	6.8972516011e+06
0.32325511        	6.8973128727e+06
0.32423364        	6.8974021708e+06
0.32521735        	6.8975205872e+06
0.32620658        	6.8976691422e+06
0.32720172        	6.8978498689e+06
0.32820295        	6.8980674328e+06
0.32921026        	6.8983303539e+06
0.33022355        	6.8986520792e+06
0.33124246        	6.8990521650e+06
0.33226641        	6.8995571616e+06
0.33329468        	6.9002005302e+06
0.33432656        	6.9010215319e+06
0.33536132        	6.9020628486e+06
0.33639816        	6.9033670120e+06
0.33743635        	6.9049719786e+06
0.33847561        	6.9069063156e+06
0.33951554        	6.9091819193e+06
0.34055568        	6.9117873412e+06
0.34159633        	6.9146848135e+06
0.34263739        	6.9178056763e+06
0.34367865        	6.9210530971e+06
0.34472067        	6.9243121990e+06
0.3457627         	6.9274547264e+06
0.34680533        	6.9303613912e+06
0.34784836        	6.9329295797e+06
0.34889139        	6.9350871936e+06
0.34993442        	6.9367994222e+06
0.35097746        	6.9380662690e+06
0.35202049        	6.9389156394e+06
0.35306335        	6.9393919890e+06
0.35410523        	6.9395435886e+06
0.35514711        	6.9394110781e+06
0.35618874        	6.9390187893e+06
0.35722939        	6.9383727488e+06
0.35827004        	6.9374611905e+06
0.35931009        	6.9362630365e+06
0.36034943        	6.9347562201e+06
0.36138876        	6.9329266928e+06
0.36242809        	6.9307799931e+06
0.36346627        	6.9283499753e+06
0.36450416        	6.9256939293e+06
0.36554205        	6.9228953584e+06
0.36657994        	6.9200568951e+06
0.36761638        	6.9172929501e+06
0.36865265        	6.9147057148e+06
0.36968781        	6.9123860161e+06
0.37072199        	6.9103945607e+06
0.37175454        	6.9087609222e+06
0.37278501        	6.9074809616e+06
0.37381304        	6.9065223164e+06
0.37483825        	6.9058332403e+06
0.37586002        	6.9053529463e+06
0.3768777         	6.9050211649e+06
0.37789092        	6.9047855714e+06
0.37889928        	6.9046059976e+06
0.37990249        	6.9044551847e+06
0.38090046        	6.9043172199e+06
0.38189311        	6.9041847625e+06
0.38288077        	6.9040558879e+06
0.38386332        	6.9039315784e+06
0.38484201        	6.9038137386e+06
0.38581663        	6.9037046369e+06
0.3867881         	6.9036063070e+06
0.38775684        	6.9035206051e+06
0.38872468        	6.9034489542e+06
0.38969207        	6.9033924119e+06
0.39065543        	6.9033512702e+06
0.39161879        	6.9033241767e+06
0.39258214        	6.9033086386e+06
0.3935455         	6.9033007769e+06
0.39450886        	6.9032955449e+06
0.39547222        	6.9032872420e+06
0.39643558        	6.9032701392e+06
0.39739893        	6.9032389640e+06
0.39836229        	6.9031891940e+06
0.39932565        	6.9031172076e+06
0.40028786        	6.9030205843e+06
0.40124638        	6.9028982323e+06
0.40220306        	6.9027492660e+06
0.40315773        	6.9025732064e+06
0.40411027        	6.9023690166e+06
0.40506049        	6.9021343231e+06
0.40600839        	6.9018648099e+06
0.406954          	6.9015535283e+06
0.4078974         	6.9011902224e+06
0.40883881        	6.9007611019e+06
0.40977844        	6.9002488992e+06
0.41071659        	6.8996331170e+06
0.41165357        	6.8988908104e+06
0.41258974        	6.8979979399e+06
0.41352561        	6.8969308371e+06
0.41446121        	6.8956691057e+06
0.41539708        	6.8941968135e+06
0.41633329        	6.8925061841e+06
0.41727008        	6.8905987569e+06
0.41820769        	6.8884873183e+06
0.41914602        	6.8861978221e+06
0.42008529        	6.8837679577e+06
0.42102527        	6.8812477428e+06
0.42196617        	6.8786950724e+06
0.42290784        	6.8761743920e+06
0.42385041        	6.8737508979e+06
0.42479376        	6.8714875004e+06
0.42573797        	6.8694394540e+06
0.42668305        	6.8676512498e+06
0.42762905        	6.8661537531e+06
0.42857601        	6.8649630552e+06
0.42952403        	6.8640811622e+06
0.43047308        	6.8634989183e+06
0.43142326        	6.8631996935e+06
0.43237459        	6.8631641984e+06
0.43332707        	6.8633747178e+06
0.43428066        	6.8638182204e+06
0.43523547        	6.8644877179e+06
0.43619137        	6.8653814654e+06
0.43714839        	6.8665007508e+06
0.43810649        	6.8678462091e+06
0.43906564        	6.8694137557e+06
0.44002573        	6.8711908139e+06
0.44098686        	6.8731541061e+06
0.44194901        	6.8752679972e+06
0.44291211        	6.8774851868e+06
0.44387619        	6.8797493495e+06
0.44484139        	6.8819990533e+06
0.44580778        	6.8841719328e+06
0.44677546        	6.8862100046e+06
0.44774464        	6.8880645343e+06
0.44871557        	6.8896998846e+06
0.44968853        	6.8910960857e+06
0.45066381        	6.8922497977e+06
0.45164184        	6.8931734606e+06
0.45262294        	6.8938921639e+06
0.45360762        	6.8944396832e+06
0.45459628        	6.8948534910e+06
0.45558938        	6.8951702869e+06
0.45658729        	6.8954221378e+06
0.45759026        	6.8956341424e+06
0.45859872        	6.8958239110e+06
0.45961249        	6.8960016365e+06
0.46063169        	6.8961714582e+06
0.46165593        	6.8963330967e+06
0.46268484        	6.8964838518e+06
0.46371795        	6.8966201077e+06
0.46475467        	6.8967383706e+06
0.4657943         	6.8968358618e+06
0.46683629        	6.8969109404e+06
0.46788001        	6.8969632446e+06
0.46892456        	6.8969940169e+06
0.46997079        	6.8970063429e+06
0.4710171         	6.8970048425e+06
0.47206381        	6.8969952655e+06
0.47311207        	6.8969838887e+06
0.47416086        	6.8969774798e+06
0.47521123        	6.8969829197e+06
0.47626362        	6.8970063908e+06
0.47731812        	6.8970531602e+06
0.47837519        	6.8971278471e+06
0.47943564        	6.8972348183e+06
0.48049954        	6.8973785153e+06
0.48156693        	6.8975640223e+06
0.48263834        	6.8977981921e+06
0.48371407        	6.8980908045e+06
0.48479373        	6.8984553007e+06
0.48587705        	6.8989099469e+06
0.48696343        	6.8994777405e+06
0.48805372        	6.9001875423e+06
0.48914471        	6.9010691891e+06
0.49023569        	6.9021547998e+06
0.49133053        	6.9034802903e+06
0.49242793        	6.9050712847e+06
0.49352533        	6.9069394437e+06
0.49462273        	6.9090838969e+06
0.49572013        	6.9114843400e+06
0.49681754        	6.9140988049e+06
0.49791494        	6.9168640938e+06
0.49901234        	6.9196992231e+06
0.50010864        	6.9225089967e+06
0.50119403        	6.9251752056e+06
0.50227811        	6.9276366436e+06
0.50336087        	6.9298213720e+06
0.50444229        	6.9316772916e+06
0.50552228        	6.9331743627e+06
0.50660082        	6.9343034580e+06
0.50767793        	6.9350716068e+06
0.50875344        	6.9354961600e+06
0.5098275         	6.9355987575e+06
0.51090005        	6.9353993929e+06
0.51197106        	6.9349131244e+06
0.51304063        	6.9341489545e+06
0.51410876        	6.9331116184e+06
0.51517547        	6.9318054958e+06
0.51624083        	6.9302396109e+06
0.51730488        	6.9284325038e+06
0.51836762        	6.9264155170e+06
0.51942913        	6.9242344900e+06
0.5204893         	6.9219491407e+06
0.5215481         	6.9196288527e+06
0.52260536        	6.9173471420e+06
0.52366097        	6.9151744854e+06
0.52471468        	6.9131717986e+06
0.52576629        	6.9113844840e+06
0.52681545        	6.9098392340e+06
0.52786176        	6.9085430213e+06
0.52890489        	6.9074848042e+06
0.52994444        	6.9066396694e+06
0.53097995        	6.9059738931e+06
0.53201113        	6.9054501172e+06
0.53303764        	6.9050322993e+06
0.53405925        	6.9046891542e+06
0.53507586        	6.9043962191e+06
0.53608741        	6.9041363875e+06
0.53709405        	6.9038991974e+06
0.53809597        	6.9036796718e+06
0.53909349        	6.9034767660e+06
0.5400871         	6.9032918924e+06
0.54107714        	6.9031276966e+06
0.5420642         	6.9029869715e+06
0.5430487         	6.9028720001e+06
0.54403125        	6.9027840135e+06
0.54501212        	6.9027230164e+06
0.54599177        	6.9026877369e+06
0.5469704         	6.9026757381e+06
0.54794822        	6.9026835054e+06
0.54892534        	6.9027065622e+06
0.54990182        	6.9027397395e+06
0.55087744        	6.9027775126e+06
0.55185214        	6.9028142797e+06
0.55282586        	6.9028445972e+06
0.55379821        	6.9028632470e+06
0.55476924        	6.9028652397e+06
0.5557385         	6.9028457847e+06
0.55670601        	6.9028001883e+06
0.55767158        	6.9027235963e+06
0.55863506        	6.9026106374e+06
0.55959636        	6.9024550384e+06
0.56055549        	6.9022492692e+06
0.56151247        	6.9019843209e+06
0.56246748        	6.9016493936e+06
0.56342062        	6.9012319918e+06
0.56437209        	6.9007180663e+06
0.56532204        	6.9000926113e+06
0.56627082        	6.8993401341e+06
0.56721853        	6.8984459050e+06
0.56816597        	6.8973961395e+06
0.56911341        	6.8961803793e+06
0.57006085        	6.8947929285e+06
0.57100829        	6.8932340084e+06
0.57195573        	6.8915109433e+06
0.57290318        	6.8896388952e+06
0.57385179        	6.8876384449e+06
0.57480091        	6.8855415015e+06
0.57575049        	6.8833855748e+06
0.57670145        	6.8812112854e+06
0.57765241        	6.8790678612e+06
0.57860511        	6.8769985453e+06
0.57955811        	6.8750520922e+06
0.58051169        	6.8732694568e+06
0.581467          	6.8716843438e+06
0.58242231        	6.8703277435e+06
0.58337869        	6.8692176499e+06
0.58433669        	6.8683651949e+06
0.58529469        	6.8677756201e+06
0.58625384        	6.8674458022e+06
0.58721511        	6.8673695418e+06
0.58817638        	6.8675382000e+06
0.58913765        	6.8679411290e+06
0.59010178        	6.8685697212e+06
0.59106746        	6.8694136310e+06
0.59203314        	6.8704602633e+06
0.59299882        	6.8716959452e+06
0.5939645         	6.8731037093e+06
0.59493018        	6.8746621067e+06
0.59589586        	6.8763444978e+06
0.59686154        	6.8781190135e+06
0.59782722        	6.8799492510e+06
0.5987929         	6.8817957663e+06
0.59975858        	6.8836180853e+06
0.60073195        	6.8853908110e+06
0.60170924        	6.8870700254e+06
0.60268838        	6.8886215879e+06
0.60366952        	6.8900236694e+06
0.60465299        	6.8912641279e+06
0.60563908        	6.8923402937e+06
0.60662814        	6.8932583498e+06
0.60762049        	6.8940317690e+06
0.60861651        	6.8946792090e+06
0.6096165         	6.8952219198e+06
0.61062077        	6.8956813990e+06
0.61162957        	6.8960772438e+06
0.61264301        	6.8964254958e+06
0.61366114        	6.8967378738e+06
0.61468391        	6.8970217725e+06
0.61571123        	6.8972806079e+06
0.6167428         	6.8975144451e+06
0.61777822        	6.8977213200e+06
0.61881714        	6.8978984495e+06
0.61985908        	6.8980430284e+06
0.62090351        	6.8981529884e+06
0.62195001        	6.8982275685e+06
0.62299833        	6.8982676319e+06
0.62404812        	6.8982757918e+06
0.62509921        	6.8982563172e+06
0.6261516         	6.8982148092e+06
0.62720534        	6.8981576856e+06
0.62826045        	6.8980916412e+06
0.62931712        	6.8980236049e+06
0.63037569        	6.8979606875e+06
0.63143639        	6.8979097328e+06
0.63249965        	6.8978772883e+06
0.63356568        	6.8978701742e+06
0.63463479        	6.8978959723e+06
0.6357072         	6.8979634300e+06
0.63678293        	6.8980830013e+06
0.63786214        	6.8982675293e+06
0.63894479        	6.8985326275e+06
0.64003066        	6.8988966316e+06
0.64111948        	6.8993803196e+06
0.64221083        	6.9000062519e+06
0.64330419        	6.9007976305e+06
0.64439908        	6.9017765252e+06
0.64549472        	6.9029611887e+06
0.64659141        	6.9043650189e+06
0.64768809        	6.9059910999e+06
0.64878391        	6.9078311653e+06
0.64987938        	6.9098663512e+06
0.65097372        	6.9120618507e+06
0.65206708        	6.9143715848e+06
0.65315931        	6.9167382987e+06
0.6542504         	6.9190980575e+06
0.65534025        	6.9213844161e+06
0.65642891        	6.9235335400e+06
0.65751627        	6.9254878173e+06
0.65860232        	6.9271996888e+06
0.65968709        	6.9286339016e+06
0.66077047        	6.9297678438e+06
0.66185244        	6.9305906611e+06
0.66293302        	6.9311008453e+06
0.66401212        	6.9313034696e+06
0.66508968        	6.9312078694e+06
0.66616574        	6.9308256480e+06
0.66724035        	6.9301697016e+06
0.66831363        	6.9292543655e+06
0.66938564        	6.9280966605e+06
0.67045608        	6.9267184315e+06
0.67152514        	6.9251468063e+06
0.6725932         	6.9234154586e+06
0.67365961        	6.9215666909e+06
0.6747245         	6.9196472943e+06
0.67578827        	6.9177067313e+06
0.67685019        	6.9157965141e+06
0.67791014        	6.9139633696e+06
0.67896818        	6.9122467999e+06
0.68002397        	6.9106772875e+06
0.68107725        	6.9092737473e+06
0.68212745        	6.9080437010e+06
0.68317443        	6.9069833961e+06
0.68421782        	6.9060807773e+06
0.68525744        	6.9053179757e+06
0.68629304        	6.9046743115e+06
0.68732437        	6.9041288804e+06
0.68835113        	6.9036625973e+06
0.68937337        	6.9032594352e+06
0.69039095        	6.9029073454e+06
0.69140442        	6.9025979171e+06
0.69241501        	6.9023259368e+06
0.69341964        	6.9020897262e+06
0.69442428        	6.9018871446e+06
0.69542147        	6.9017195510e+06
0.6964168         	6.9015858976e+06
0.69741214        	6.9014856734e+06
0.69840747        	6.9014178428e+06
0.6994028         	6.9013803858e+06
0.7003955         	6.9013704064e+06
0.70138344        	6.9013840432e+06
0.7023703         	6.9014169763e+06
0.70335616        	6.9014645685e+06
0.70434101        	6.9015220421e+06
0.70532483        	6.9015846444e+06
0.70630752        	6.9016477224e+06
0.707289          	6.9017066633e+06
0.70826908        	6.9017568295e+06
0.70924767        	6.9017934260e+06
0.71022463        	6.9018111616e+06
0.71119981        	6.9018042046e+06
0.71217323        	6.9017658904e+06
0.71314476        	6.9016884125e+06
0.71411442        	6.9015629271e+06
0.71508228        	6.9013795068e+06
0.7160484         	6.9011272384e+06
0.71701283        	6.9007943392e+06
0.71797581        	6.9003682620e+06
0.71893746        	6.8998363983e+06
0.71989803        	6.8991866534e+06
0.72085765        	6.8984082301e+06
0.7218166         	6.8974922043e+06
0.72277514        	6.8964325292e+06
0.72373327        	6.8952272600e+06
0.72469139        	6.8938785078e+06
0.72564951        	6.8923941206e+06
0.72660826        	6.8907865883e+06
0.72756722        	6.8890756935e+06
0.72852669        	6.8872855141e+06
0.72948674        	6.8854452850e+06
0.73044745        	6.8835880810e+06
0.73140885        	6.8817496604e+06
0.73237099        	6.8799668895e+06
0.73333389        	6.8782761690e+06
0.73429756        	6.8767118353e+06
0.735262          	6.8753047532e+06
0.73622727        	6.8740810992e+06
0.73719338        	6.8730617568e+06
0.73816045        	6.8722618559e+06
0.73912847        	6.8716910245e+06
0.74009742        	6.8713536272e+06
0.74106727        	6.8712494743e+06
0.74203816        	6.8713746154e+06
0.74301011        	6.8717219815e+06
0.74398301        	6.8722817816e+06
0.74495688        	6.8730417924e+06
0.74593175        	6.8739873447e+06
0.74690758        	6.8751010957e+06
0.74788448        	6.8763630320e+06
0.7488624         	6.8777499659e+06
0.74984135        	6.8792359048e+06
0.7508214         	6.8807923933e+06
0.75180257        	6.8823890615e+06
0.75278489        	6.8839947286e+06
0.7537687         	6.8855791994e+06
0.75475397        	6.8871136306e+06
0.75574097        	6.8885729722e+06
0.75672984        	6.8899366178e+06
0.75772081        	6.8911895715e+06
0.75871416        	6.8923229564e+06
0.75971016        	6.8933338671e+06
0.76070893        	6.8942248885e+06
0.76171101        	6.8950035182e+06
0.76271651        	6.8956801148e+06
0.76372562        	6.8962669283e+06
0.76473868        	6.8967766983e+06
0.76575569        	6.8972212049e+06
0.76677663        	6.8976105096e+06
0.76780175        	6.8979524747e+06
0.76883071        	6.8982522946e+06
0.76986343        	6.8985129962e+06
0.77089969        	6.8987359167e+06
0.7719391         	6.8989213693e+06
0.7729814         	6.8990694025e+06
0.77402612        	6.8991802560e+06
0.77507315        	6.8992548313e+06
0.77612206        	6.8992949165e+06
0.77717236        	6.8993034173e+06
0.77822432        	6.8992843303e+06
0.77927759        	6.8992425039e+06
0.78033217        	6.8991834042e+06
0.78138806        	6.8991128768e+06
0.78244555        	6.8990368661e+06
0.78350454        	6.8989614675e+06
0.78456534        	6.8988930212e+06
0.78562858        	6.8988381239e+06
0.78669313        	6.8988038811e+06
0.78776135        	6.8987981665e+06
0.78883049        	6.8988302154e+06
0.78990448        	6.8989110243e+06
0.79097847        	6.8990526219e+06
0.79205861        	6.8992701091e+06
0.79313907        	6.8995782612e+06
0.79421953        	6.8999934716e+06
0.79529999        	6.9005327546e+06
0.79638045        	6.9012127660e+06
0.79746092        	6.9020485536e+06
0.79854138        	6.9030521348e+06
0.79962184        	6.9042309272e+06
0.80070845        	6.9055944344e+06
0.80179837        	6.9071349867e+06
0.80288789        	6.9088327664e+06
0.8039768         	6.9106626784e+06
0.80506488        	6.9125905984e+06
0.80615203        	6.9145749524e+06
0.80723807        	6.9165687090e+06
0.80832304        	6.9185224523e+06
0.80940681        	6.9203865958e+06
0.81048936        	6.9221142705e+06
0.81157067        	6.9236634544e+06
0.81265065        	6.9249991224e+06
0.81372937        	6.9260948299e+06
0.81480674        	6.9269324171e+06
0.81588275        	6.9275015117e+06
0.81695738        	6.9277983966e+06
0.81803063        	6.9278253531e+06
0.81910247        	6.9275897496e+06
0.82017297        	6.9271028124e+06
0.8212421         	6.9263793175e+06
0.82230989        	6.9254376287e+06
0.82337637        	6.9242998116e+06
0.82444158        	6.9229917327e+06
0.82550541        	6.9215433219e+06
0.8265679         	6.9199877298e+06
0.82762902        	6.9183609101e+06
0.82868862        	6.9167003146e+06
0.82974661        	6.9150430065e+06
0.83080285        	6.9134239424e+06
0.83185716        	6.9118742007e+06
0.83290931        	6.9104193126e+06
0.83395907        	6.9090780294e+06
0.83500621        	6.9078617205e+06
0.83605053        	6.9067745802e+06
0.83709171        	6.9058147249e+06
0.83812953        	6.9049752403e+06
0.83916389        	6.9042457303e+06
0.84019452        	6.9036139716e+06
0.84122143        	6.9030670826e+06
0.84224455        	6.9025930659e+06
0.84326396        	6.9021815144e+06
0.84427972        	6.9018241821e+06
0.84529198        	6.9015149041e+06
0.84630088        	6.9012493478e+06
0.84730676        	6.9010245917e+06
0.84830986        	6.9008386935e+06
0.84931053        	6.9006901605e+06
0.85030899        	6.9005775654e+06
0.85130544        	6.9004992353e+06
0.85230032        	6.9004530517e+06
0.8532937         	6.9004363120e+06
0.85428586        	6.9004456735e+06
0.85527689        	6.9004772600e+06
0.85626688        	6.9005267723e+06
0.85725587        	6.9005896054e+06
0.85824388        	6.9006609383e+06
0.85923084        	6.9007357826e+06
0.86021668        	6.9008090168e+06
0.86120135        	6.9008753302e+06
0.86218471        	6.9009291154e+06
0.86316673        	6.9009643732e+06
0.86414731        	6.9009745455e+06
0.86512648        	6.9009524206e+06
0.86610421        	6.9008901150e+06
0.86708047        	6.9007790693e+06
0.86805534        	6.9006100573e+06