# Region type :   patch main_inlet
# Faces           : 348
# Area            : 8.2964479394e-02
# Scale factor    : 1.0000000000e+00
# Time            	sum(phi)
0.0010900471      	-3.3855396803e+01
0.0026879461      	-3.3866654465e+01
0.0042858452      	-3.3863253437e+01
0.0058837443      	-3.3863656850e+01
0.0074708805      	-3.3863691533e+01
0.008578173       	-3.3863622458e+01
0.0095086528      	-3.3863588735e+01
0.010436736       	-3.3863609938e+01
0.011394162       	-3.3863691045e+01
0.012362476       	-3.3864207970e+01
0.013340588       	-3.3864962256e+01
0.01431499        	-3.3866386284e+01
0.015279388       	-3.3868175207e+01
0.016247981       	-3.3869187755e+01
0.017251716       	-3.3869557882e+01
0.018328318       	-3.3871170958e+01
0.019392836       	-3.3876138849e+01
0.02029426        	-3.3883307066e+01
0.021093427       	-3.3890393213e+01
0.021854982       	-3.3895550701e+01
0.02260199        	-3.3897869269e+01
0.023338392       	-3.3897968099e+01
0.024062228       	-3.3897288887e+01
0.024774319       	-3.3896877444e+01
0.025480548       	-3.3896927596e+01
0.026197464       	-3.3897159005e+01
0.026943433       	-3.3897349768e+01
0.027722161       	-3.3897446703e+01
0.028519567       	-3.3897310924e+01
0.029295997       	-3.3896750918e+01
0.030019663       	-3.3895843839e+01
0.030707173       	-3.3894925996e+01
0.031374119       	-3.3894570203e+01
0.03202527        	-3.3895408705e+01
0.032659673       	-3.3897649739e+01
0.033277986       	-3.3900764295e+01
0.033892366       	-3.3903806444e+01
0.034517509       	-3.3905949904e+01
0.03516086        	-3.3906958362e+01
0.035825415       	-3.3907335058e+01
0.036503035       	-3.3907765101e+01
0.037173382       	-3.3908389368e+01
0.037813201       	-3.3908879395e+01
0.038419511       	-3.3908978394e+01
0.039005805       	-3.3908574454e+01
0.039580622       	-3.3907640085e+01
0.040153239       	-3.3906340604e+01
0.040727876       	-3.3905115454e+01
0.041302607       	-3.3904515740e+01
0.041877382       	-3.3904895972e+01
0.042451871       	-3.3906273210e+01
0.043023432       	-3.3908336122e+01
0.043586905       	-3.3910552294e+01
0.044127464       	-3.3912397291e+01
0.044623615       	-3.3913682613e+01
0.04506618        	-3.3914588834e+01
0.045464552       	-3.3915353499e+01
0.04583811        	-3.3916091285e+01
0.046205202       	-3.3916788019e+01
0.046569208       	-3.3917313932e+01
0.046918508       	-3.3917516740e+01
0.047245033       	-3.3917357700e+01
0.047552057       	-3.3916901026e+01
0.047846141       	-3.3916242457e+01
0.048132056       	-3.3915480949e+01
0.048411445       	-3.3914711646e+01
0.048682878       	-3.3914018975e+01
0.048944113       	-3.3913463392e+01
0.04919428        	-3.3913076427e+01
0.049434006       	-3.3912869118e+01
0.049664508       	-3.3912842304e+01
0.04988685        	-3.3912991648e+01
0.050101735       	-3.3913308373e+01
0.050309694       	-3.3913778842e+01
0.050511461       	-3.3914385316e+01
0.050708121       	-3.3915107543e+01
0.050900982       	-3.3915923435e+01
0.051091425       	-3.3916808986e+01
0.051280831       	-3.3917737783e+01
0.051470512       	-3.3918680379e+01
0.051661553       	-3.3919603742e+01
0.051854778       	-3.3920472203e+01
0.052050658       	-3.3921249554e+01
0.052249101       	-3.3921902811e+01
0.052449316       	-3.3922408047e+01
0.052650157       	-3.3922756997e+01
0.052850565       	-3.3922959421e+01
0.053049898       	-3.3923039942e+01
0.053248056       	-3.3923031353e+01
0.05344533        	-3.3922967534e+01
0.053642203       	-3.3922877918e+01
0.053839144       	-3.3922783860e+01
0.054036489       	-3.3922696895e+01
0.054234322       	-3.3922619163e+01
0.054432423       	-3.3922546014e+01
0.054630301       	-3.3922470394e+01
0.054827353       	-3.3922387762e+01
0.055023016       	-3.3922299635e+01
0.055216884       	-3.3922214585e+01
0.055408727       	-3.3922146858e+01
0.055598411       	-3.3922113767e+01
0.055785886       	-3.3922133392e+01
0.05597118        	-3.3922223573e+01
0.056154429       	-3.3922402582e+01
0.056335896       	-3.3922690923e+01
0.056515984       	-3.3923113495e+01
0.056695179       	-3.3923700765e+01
0.056874008       	-3.3924488531e+01
0.057053003       	-3.3925515543e+01
0.057232661       	-3.3926818759e+01
0.057413388       	-3.3928426591e+01
0.057595473       	-3.3930349284e+01
0.057779005       	-3.3932568594e+01
0.057963844       	-3.3935029147e+01
0.058149677       	-3.3937636021e+01
0.058336099       	-3.3940261751e+01
0.058522728       	-3.3942764150e+01
0.058709274       	-3.3945010513e+01
0.058895606       	-3.3946904279e+01
0.059081755       	-3.3948406395e+01
0.059267859       	-3.3949546516e+01
0.059454097       	-3.3950420534e+01
0.059640618       	-3.3951173322e+01
0.059827509       	-3.3951967978e+01
0.060014739       	-3.3952946528e+01
0.060202144       	-3.3954192977e+01
0.060389432       	-3.3955711056e+01
0.060576213       	-3.3957426853e+01
0.06076209        	-3.3959218000e+01
0.060946702       	-3.3960958345e+01
0.061129791       	-3.3962561652e+01
0.061311243       	-3.3964007718e+01
0.061491065       	-3.3965343741e+01
0.06166938        	-3.3966664969e+01
0.061846406       	-3.3968084060e+01
0.06202244        	-3.3969700303e+01
0.062197835       	-3.3971577486e+01
0.062372977       	-3.3973734270e+01
0.062548223       	-3.3976145774e+01
0.06272393        	-3.3978756089e+01
0.062900365       	-3.3981492615e+01
0.063077715       	-3.3984279225e+01
0.063256046       	-3.3987043677e+01
0.063435308       	-3.3989717634e+01
0.063615386       	-3.3992231461e+01
0.063796056       	-3.3994506198e+01
0.063977069       	-3.3996452587e+01
0.06415818        	-3.3997977096e+01
0.064339233       	-3.3998998961e+01
0.064520144       	-3.3999470477e+01
0.064700927       	-3.3999395934e+01
0.064881669       	-3.3998841738e+01
0.065062438       	-3.3997934261e+01
0.06524334        	-3.3996843731e+01
0.06542444        	-3.3995756580e+01
0.065605722       	-3.3994841429e+01
0.065787079       	-3.3994216608e+01
0.065968339       	-3.3993928345e+01
0.066149221       	-3.3993946919e+01
0.066329412       	-3.3994181693e+01
0.066508585       	-3.3994512315e+01
0.066686484       	-3.3994824837e+01
0.066862968       	-3.3995041626e+01
0.067038018       	-3.3995137051e+01
0.067211739       	-3.3995137295e+01
0.067384352       	-3.3995108042e+01
0.06755616        	-3.3995135508e+01
0.067727464       	-3.3995306778e+01
0.067898587       	-3.3995693085e+01
0.068069825       	-3.3996338433e+01
0.068241426       	-3.3997254151e+01
0.068413567       	-3.3998418843e+01
0.068586372       	-3.3999783026e+01
0.068759888       	-3.4001275855e+01
0.068934103       	-3.4002813103e+01
0.069108958       	-3.4004304766e+01
0.069284341       	-3.4005661566e+01
0.069460106       	-3.4006800893e+01
0.0696361         	-3.4007652350e+01
0.069812195       	-3.4008162765e+01
0.069988307       	-3.4008300843e+01
0.07016438        	-3.4008061008e+01
0.070340453       	-3.4007465814e+01
0.07051655        	-3.4006566566e+01
0.070692758       	-3.4005439968e+01
0.07086914        	-3.4004181838e+01
0.071045734       	-3.4002895156e+01
0.071222524       	-3.4001674968e+01
0.071399431       	-3.4000592890e+01
0.071576289       	-3.3999684724e+01
0.071752888       	-3.3998944976e+01
0.071928959       	-3.3998331408e+01
0.072104227       	-3.3997777821e+01
0.072278439       	-3.3997212070e+01
0.07245148        	-3.3996573333e+01
0.07262333        	-3.3995824853e+01
0.072794116       	-3.3994959024e+01
0.072964062       	-3.3993995726e+01
0.073133446       	-3.3992975523e+01
0.073302564       	-3.3991949958e+01
0.073471699       	-3.3990971037e+01
0.073641082       	-3.3990081354e+01
0.073810891       	-3.3989305168e+01
0.073981239       	-3.3988641944e+01
0.074152182       	-3.3988062119e+01
0.074323727       	-3.3987505863e+01
0.074495838       	-3.3986885359e+01
0.074668456       	-3.3986090708e+01
0.074841503       	-3.3984998888e+01
0.075014888       	-3.3983485138e+01
0.075188508       	-3.3981434917e+01
0.075362273       	-3.3978754322e+01
0.075536084       	-3.3975377514e+01
0.075709895       	-3.3971267591e+01
0.075883706       	-3.3966413279e+01
0.076057577       	-3.3960821658e+01
0.076231492       	-3.3954514288e+01
0.076405528       	-3.3947513165e+01
0.076579705       	-3.3939838717e+01
0.076754019       	-3.3931504262e+01
0.076928407       	-3.3922513827e+01
0.077102776       	-3.3912861173e+01
0.077276952       	-3.3902534825e+01
0.077450711       	-3.3891522454e+01
0.077623811       	-3.3879816610e+01
0.077796024       	-3.3867420815e+01
0.077967198       	-3.3854352695e+01
0.078137295       	-3.3840646054e+01
0.078306409       	-3.3826350440e+01
0.078474742       	-3.3811533133e+01
0.078642544       	-3.3796280149e+01
0.078810093       	-3.3780696613e+01
0.078977648       	-3.3764907355e+01
0.079145432       	-3.3749052742e+01
0.079313604       	-3.3733283721e+01
0.079482257       	-3.3717754920e+01
0.079651431       	-3.3702614840e+01
0.079821109       	-3.3687998970e+01
0.079991259       	-3.3674018915e+01
0.080161841       	-3.3660760297e+01
0.080332794       	-3.3648284317e+01
0.080504056       	-3.3636630833e+01
0.080675566       	-3.3625824866e+01
0.080847262       	-3.3615884371e+01
0.081019075       	-3.3606827460e+01
0.081190925       	-3.3598676225e+01
0.081362784       	-3.3591455152e+01
0.081534714       	-3.3585187409e+01
0.081706644       	-3.3579897340e+01
0.081878631       	-3.3575592104e+01
0.0820507         	-3.3572258822e+01
0.082222863       	-3.3569857581e+01
0.082395118       	-3.3568317372e+01
0.082567377       	-3.3567536682e+01
0.082739529       	-3.3567387755e+01
0.082911407       	-3.3567725679e+01
0.083082815       	-3.3568399403e+01
0.083253531       	-3.3569263332e+01
0.083423381       	-3.3570188177e+01
0.083592266       	-3.3571068921e+01
0.083760209       	-3.3571829443e+01
0.083927362       	-3.3572423604e+01
0.08409393        	-3.3572833997e+01
0.084260172       	-3.3573068955e+01
0.084426314       	-3.3573158629e+01
0.084592602       	-3.3573149877e+01
0.084759201       	-3.3573099445e+01
0.084926224       	-3.3573065825e+01
0.085093702       	-3.3573100112e+01
0.085261628       	-3.3573237070e+01
0.085429962       	-3.3573488082e+01
0.08559867        	-3.3573837537e+01
0.085767706       	-3.3574243388e+01
0.085937027       	-3.3574642275e+01
0.086106579       	-3.3574958596e+01
0.086276332       	-3.3575116537e+01
0.086446232       	-3.3575052696e+01
0.086616223       	-3.3574727664e+01
0.086786284       	-3.3574133665e+01
0.086956344       	-3.3573297193e+01
0.087126405       	-3.3572274818e+01
0.0872965         	-3.3571144311e+01
0.087466674       	-3.3569992104e+01
0.087636866       	-3.3568899845e+01
0.087807157       	-3.3567932505e+01
0.087977448       	-3.3567131289e+01
0.088147733       	-3.3566510662e+01
0.088317859       	-3.3566062205e+01
0.088487706       	-3.3565760563e+01
0.088657078       	-3.3565572165e+01
0.088825776       	-3.3565462624e+01
0.088993662       	-3.3565401918e+01
0.089160657       	-3.3565367137e+01
0.089326807       	-3.3565342915e+01
0.089492256       	-3.3565321324e+01
0.089657206       	-3.3565301953e+01
0.089821913       	-3.3565292538e+01
0.089986607       	-3.3565309552e+01
0.090151444       	-3.3565377754e+01
0.090316599       	-3.3565527942e+01
0.090482136       	-3.3565791921e+01
0.090648076       	-3.3566195658e+01
0.090814378       	-3.3566751301e+01
0.090981011       	-3.3567450706e+01
0.091147922       	-3.3568261876e+01
0.091315054       	-3.3569129774e+01
0.09148241        	-3.3569982420e+01
0.09164994        	-3.3570739799e+01
0.091817612       	-3.3571326078e+01
0.091985439       	-3.3571681387e+01
0.092153283       	-3.3571771215e+01
0.092321245       	-3.3571592527e+01
0.09248927        	-3.3571173524e+01
0.092657295       	-3.3570568889e+01
0.09282532        	-3.3569849628e+01
0.092993346       	-3.3569090897e+01
0.093161371       	-3.3568359111e+01
0.093329396       	-3.3567702824e+01
0.093497422       	-3.3567146720e+01
0.093665447       	-3.3566692558e+01
0.093833427       	-3.3566324075e+01
0.094001143       	-3.3566014872e+01
0.094168473       	-3.3565735890e+01
0.094335228       	-3.3565461960e+01
0.094501274       	-3.3565174630e+01
0.094666546       	-3.3564862273e+01
0.094831079       	-3.3564518502e+01
0.094994961       	-3.3564140788e+01
0.095158402       	-3.3563729997e+01
0.095321694       	-3.3563291272e+01
0.095484986       	-3.3562836347e+01
0.095648443       	-3.3562384443e+01
0.095812238       	-3.3561961450e+01
0.095976434       	-3.3561596694e+01
0.096141067       	-3.3561316609e+01
0.09630607        	-3.3561136875e+01
0.096471346       	-3.3561054619e+01
0.096637011       	-3.3561043815e+01
0.096802823       	-3.3561055279e+01
0.09696891        	-3.3561021385e+01
0.097134997       	-3.3560865704e+01
0.097301567       	-3.3560513787e+01
0.097468137       	-3.3559907854e+01
0.097634707       	-3.3559015748e+01
0.097801277       	-3.3557837308e+01
0.097967847       	-3.3556405320e+01
0.098134417       	-3.3554780902e+01
0.098300987       	-3.3553044084e+01
0.098467557       	-3.3551280895e+01
0.098634127       	-3.3549570307e+01
0.098800697       	-3.3547973979e+01
0.098967267       	-3.3546530585e+01
0.099133836       	-3.3545254854e+01
0.099300406       	-3.3544142712e+01
0.099466976       	-3.3543179111e+01
0.099633546       	-3.3542346375e+01
0.099800116       	-3.3541630417e+01
0.099966686       	-3.3541023635e+01
0.10013158        	-3.3540528676e+01
0.10029541        	-3.3540142299e+01
0.10045859        	-3.3539862957e+01
0.10062128        	-3.3539688898e+01
0.10078371        	-3.3539617773e+01
0.10094607        	-3.3539648754e+01
0.10110857        	-3.3539785022e+01
0.10127134        	-3.3540034885e+01
0.10143447        	-3.3540410500e+01
0.10159798        	-3.3540923717e+01
0.10176185        	-3.3541579651e+01
0.10192602        	-3.3542369384e+01
0.10209046        	-3.3543264943e+01
0.10225512        	-3.3544217282e+01
0.10241996        	-3.3545159092e+01
0.10258496        	-3.3546011901e+01
0.10275012        	-3.3546696626e+01
0.10291542        	-3.3547145476e+01
0.10308083        	-3.3547313095e+01
0.10324634        	-3.3547184698e+01
0.10341192        	-3.3546779281e+01
0.10357757        	-3.3546147057e+01
0.10374326        	-3.3545361266e+01
0.10390898        	-3.3544505687e+01
0.10407472        	-3.3543660871e+01
0.10424048        	-3.3542891433e+01
0.10440625        	-3.3542238020e+01
0.104572          	-3.3541715099e+01
0.10473768        	-3.3541314238e+01
0.10490323        	-3.3541012364e+01
0.10506853        	-3.3540781503e+01
0.10523348        	-3.3540597291e+01
0.10539792        	-3.3540443950e+01
0.10556175        	-3.3540315012e+01
0.10572491        	-3.3540210740e+01
0.10588743        	-3.3540134208e+01
0.10604942        	-3.3540088334e+01
0.10621105        	-3.3540074860e+01
0.10637252        	-3.3540095618e+01
0.10653403        	-3.3540154983e+01
0.10669575        	-3.3540262179e+01
0.10685777        	-3.3540431743e+01
0.10702015        	-3.3540681309e+01
0.10718287        	-3.3541026403e+01
0.10734592        	-3.3541473470e+01
0.10750923        	-3.3542013109e+01
0.10767277        	-3.3542615583e+01
0.10783649        	-3.3543230421e+01
0.10800037        	-3.3543790619e+01
0.10816439        	-3.3544220557e+01
0.10832854        	-3.3544447071e+01
0.10849281        	-3.3544410721e+01
0.10865717        	-3.3544075444e+01
0.10882162        	-3.3543434649e+01
0.10898614        	-3.3542512142e+01
0.10915071        	-3.3541357513e+01
0.10931531        	-3.3540036334e+01
0.10947993        	-3.3538617584e+01
0.10964457        	-3.3537160591e+01
0.10980921        	-3.3535704900e+01
0.10997383        	-3.3534265955e+01
0.1101384         	-3.3532836753e+01
0.11030287        	-3.3531395132e+01
0.11046719        	-3.3529914399e+01
0.11063125        	-3.3528373620e+01
0.11079493        	-3.3526764826e+01
0.11095812        	-3.3525094923e+01
0.11112074        	-3.3523382870e+01
0.11128274        	-3.3521653717e+01
0.11144418        	-3.3519931574e+01
0.11160516        	-3.3518235916e+01
0.11176587        	-3.3516580376e+01
0.11192647        	-3.3514974381e+01
0.11208716        	-3.3513426288e+01
0.11224806        	-3.3511946163e+01
0.11240926        	-3.3510546815e+01
0.1125708         	-3.3509242116e+01
0.11273265        	-3.3508042593e+01
0.11289479        	-3.3506949411e+01
0.11305716        	-3.3505949211e+01
0.11321973        	-3.3505010914e+01
0.11338246        	-3.3504086225e+01
0.11354533        	-3.3503114000e+01
0.11370833        	-3.3502028026e+01
0.11387145        	-3.3500766726e+01
0.11403466        	-3.3499283190e+01
0.11419798        	-3.3497553634e+01
0.11436138        	-3.3495582531e+01
0.11452485        	-3.3493403032e+01
0.11468838        	-3.3491072107e+01
0.11485195        	-3.3488661304e+01
0.11501554        	-3.3486244210e+01
0.11517916        	-3.3483883641e+01
0.11534276        	-3.3481623923e+01
0.11550635        	-3.3479486212e+01
0.11566988        	-3.3477470532e+01
0.11583331        	-3.3475563421e+01
0.11599658        	-3.3473748435e+01
0.1161596         	-3.3472015897e+01
0.11632226        	-3.3470369545e+01
0.11648447        	-3.3468827443e+01
0.11664614        	-3.3467418334e+01
0.11680725        	-3.3466174785e+01
0.11696784        	-3.3465125950e+01
0.11712802        	-3.3464293222e+01
0.11728795        	-3.3463687794e+01
0.11744779        	-3.3463311615e+01
0.1176077         	-3.3463160010e+01
0.11776782        	-3.3463224247e+01
0.11792821        	-3.3463492861e+01
0.1180889         	-3.3463950885e+01
0.11824989        	-3.3464577076e+01
0.11841112        	-3.3465340152e+01
0.11857257        	-3.3466195491e+01
0.1187342         	-3.3467083818e+01
0.11889597        	-3.3467932827e+01
0.11905787        	-3.3468662225e+01
0.11921988        	-3.3469191595e+01
0.119382          	-3.3469449746e+01
0.11954422        	-3.3469384416e+01
0.11970653        	-3.3468970125e+01
0.11986893        	-3.3468212828e+01
0.1200314         	-3.3467149799e+01
0.12019393        	-3.3465844368e+01
0.12035652        	-3.3464375675e+01
0.12051914        	-3.3462825926e+01
0.12068177        	-3.3461266263e+01
0.12084441        	-3.3459747389e+01
0.12100701        	-3.3458294215e+01
0.12116957        	-3.3456907439e+01
0.12133202        	-3.3455571198e+01
0.12149431        	-3.3454264196e+01
0.12165637        	-3.3452970974e+01
0.1218181         	-3.3451689849e+01
0.12197942        	-3.3450435651e+01
0.12214025        	-3.3449237149e+01
0.12230056        	-3.3448130100e+01
0.12246038        	-3.3447149719e+01
0.1226198         	-3.3446324448e+01
0.12277896        	-3.3445672977e+01
0.12293802        	-3.3445203913e+01
0.12309712        	-3.3444918328e+01
0.12325639        	-3.3444812316e+01
0.1234159         	-3.3444879073e+01
0.12357568        	-3.3445109251e+01
0.12373573        	-3.3445489401e+01
0.12389601        	-3.3445999182e+01
0.12405649        	-3.3446608451e+01
0.12421713        	-3.3447275646e+01
0.12437791        	-3.3447948344e+01
0.1245388         	-3.3448566754e+01
0.12469979        	-3.3449069051e+01
0.12486087        	-3.3449399031e+01
0.12502203        	-3.3449513726e+01
0.12518327        	-3.3449390203e+01
0.12534459        	-3.3449029965e+01
0.12550597        	-3.3448459835e+01
0.12566741        	-3.3447728385e+01
0.12582888        	-3.3446898168e+01
0.12599039        	-3.3446034678e+01
0.1261519         	-3.3445194801e+01
0.1263134         	-3.3444416595e+01
0.12647488        	-3.3443713841e+01
0.1266363         	-3.3443076376e+01
0.12679762        	-3.3442476176e+01
0.12695879        	-3.3441877682e+01
0.12711976        	-3.3441248881e+01
0.12728044        	-3.3440570346e+01
0.12744076        	-3.3439839776e+01
0.12760064        	-3.3439071075e+01
0.12776006        	-3.3438289330e+01
0.12791901        	-3.3437523612e+01
0.12807757        	-3.3436800425e+01
0.12823585        	-3.3436139665e+01
0.12839399        	-3.3435553415e+01
0.12855212        	-3.3435047267e+01
0.12871036        	-3.3434623120e+01
0.12886881        	-3.3434281430e+01
0.1290275         	-3.3434022352e+01
0.12918644        	-3.3433844958e+01
0.12934561        	-3.3433744967e+01
0.12950497        	-3.3433711804e+01
0.12966451        	-3.3433726235e+01
0.12982417        	-3.3433759590e+01
0.12998396        	-3.3433775186e+01
0.13014384        	-3.3433731931e+01
0.13030381        	-3.3433589552e+01
0.13046386        	-3.3433314718e+01
0.130624          	-3.3432886986e+01
0.13078421        	-3.3432303392e+01
0.13094449        	-3.3431580720e+01
0.13110484        	-3.3430754404e+01
0.13126523        	-3.3429873890e+01
0.13142567        	-3.3428994717e+01
0.13158613        	-3.3428168768e+01
0.13174659        	-3.3427434889e+01
0.13190705        	-3.3426812693e+01
0.13206747        	-3.3426300525e+01
0.13222782        	-3.3425878528e+01
0.13238806        	-3.3425516149e+01
0.13254814        	-3.3425181735e+01
0.13270799        	-3.3424851304e+01
0.13286755        	-3.3424514076e+01
0.13302675        	-3.3424173326e+01
0.13318554        	-3.3423842856e+01
0.1333439         	-3.3423540741e+01
0.13350189        	-3.3423282698e+01
0.13365956        	-3.3423077130e+01
0.13381702        	-3.3422922967e+01
0.13397442        	-3.3422810441e+01
0.13413185        	-3.3422723749e+01
0.13428943        	-3.3422644379e+01
0.1344472         	-3.3422553910e+01
0.1346052         	-3.3422435340e+01
0.13476341        	-3.3422272713e+01
0.13492183        	-3.3422049462e+01
0.1350804         	-3.3421746443e+01
0.13523912        	-3.3421340628e+01
0.13539795        	-3.3420805236e+01
0.13555689        	-3.3420111549e+01
0.13571591        	-3.3419232257e+01
0.13587501        	-3.3418145884e+01
0.13603419        	-3.3416841332e+01
0.13619345        	-3.3415321874e+01
0.13635278        	-3.3413607665e+01
0.13651219        	-3.3411735645e+01
0.13667165        	-3.3409756943e+01
0.13683117        	-3.3407730780e+01
0.13699074        	-3.3405716615e+01
0.13715033        	-3.3403764199e+01
0.13730993        	-3.3401907470e+01
0.13746951        	-3.3400159510e+01
0.13762906        	-3.3398512767e+01
0.13778852        	-3.3396943613e+01
0.13794787        	-3.3395420763e+01
0.13810706        	-3.3393913891e+01
0.13826602        	-3.3392402661e+01
0.13842469        	-3.3390880001e+01
0.13858302        	-3.3389352083e+01
0.13874098        	-3.3387834622e+01
0.13889858        	-3.3386347055e+01
0.13905584        	-3.3384906761e+01
0.13921286        	-3.3383525627e+01
0.13936974        	-3.3382207847e+01
0.1395266         	-3.3380952223e+01
0.13968352        	-3.3379754329e+01
0.1398406         	-3.3378609238e+01
0.13999788        	-3.3377513455e+01
0.14015537        	-3.3376465316e+01
0.14031308        	-3.3375463813e+01
0.14047097        	-3.3374506534e+01
0.14062904        	-3.3373587600e+01
0.14078724        	-3.3372696452e+01
0.14094557        	-3.3371817915e+01
0.14110402        	-3.3370934021e+01
0.14126257        	-3.3370026976e+01
0.14142123        	-3.3369082942e+01
0.14157999        	-3.3368095822e+01
0.14173886        	-3.3367070347e+01
0.14189784        	-3.3366023367e+01
0.14205691        	-3.3364984367e+01
0.14221608        	-3.3363991952e+01
0.14237534        	-3.3363087290e+01
0.14253468        	-3.3362308520e+01
0.14269408        	-3.3361682429e+01
0.14285352        	-3.3361218695e+01
0.14301299        	-3.3360907414e+01
0.14317245        	-3.3360720643e+01
0.14333186        	-3.3360618426e+01
0.1434912         	-3.3360556819e+01
0.1436504         	-3.3360496835e+01
0.14380942        	-3.3360411389e+01
0.1439682         	-3.3360288666e+01
0.14412669        	-3.3360131310e+01
0.14428487        	-3.3359952215e+01
0.14444276        	-3.3359768595e+01
0.1446004         	-3.3359596435e+01
0.14475787        	-3.3359446581e+01
0.14491528        	-3.3359323570e+01
0.14507272        	-3.3359226619e+01
0.14523028        	-3.3359151794e+01
0.14538803        	-3.3359094496e+01
0.14554598        	-3.3359051061e+01
0.14570416        	-3.3359019084e+01
0.14586254        	-3.3358996406e+01
0.1460211         	-3.3358979342e+01
0.14617981        	-3.3358961045e+01
0.14633866        	-3.3358930720e+01
0.14649761        	-3.3358874141e+01
0.14665665        	-3.3358775553e+01
0.14681578        	-3.3358620664e+01
0.14697499        	-3.3358400101e+01
0.14713427        	-3.3358112944e+01
0.14729363        	-3.3357769189e+01
0.14745304        	-3.3357390874e+01
0.14761252        	-3.3357010944e+01
0.14777205        	-3.3356669779e+01
0.14793162        	-3.3356409741e+01
0.14809122        	-3.3356268260e+01
0.14825084        	-3.3356271604e+01
0.14841044        	-3.3356430242e+01
0.14857001        	-3.3356737490e+01
0.14872952        	-3.3357172091e+01
0.14888892        	-3.3357704089e+01
0.14904818        	-3.3358302454e+01
0.14920726        	-3.3358942418e+01
0.14936609        	-3.3359610503e+01
0.14952463        	-3.3360306143e+01
0.14968286        	-3.3361039898e+01
0.14984076        	-3.3361829225e+01
0.14999836        	-3.3362693369e+01
0.15015572        	-3.3363649363e+01
0.15031292        	-3.3364709735e+01
0.15047006        	-3.3365882509e+01
0.15062722        	-3.3367172754e+01
0.15078448        	-3.3368585156e+01
0.15094189        	-3.3370126144e+01
0.15109947        	-3.3371804965e+01
0.15125722        	-3.3373633702e+01
0.15141512        	-3.3375625996e+01
0.15157316        	-3.3377795311e+01
0.15173131        	-3.3380153467e+01
0.15188957        	-3.3382709902e+01
0.1520479         	-3.3385472442e+01
0.15220632        	-3.3388448982e+01
0.15236481        	-3.3391650241e+01
0.15252336        	-3.3395092795e+01
0.15268198        	-3.3398802045e+01
0.15284066        	-3.3402813818e+01
0.15299941        	-3.3407174968e+01
0.15315822        	-3.3411941077e+01
0.15331707        	-3.3417173462e+01
0.15347597        	-3.3422931486e+01
0.15363489        	-3.3429267634e+01
0.15379383        	-3.3436220698e+01
0.15395275        	-3.3443810253e+01
0.15411163        	-3.3452037360e+01
0.15427045        	-3.3460884705e+01
0.15442916        	-3.3470323067e+01
0.15458772        	-3.3480316701e+01
0.15474609        	-3.3490828267e+01
0.15490421        	-3.3501821948e+01
0.15506207        	-3.3513263458e+01
0.15521962        	-3.3525117906e+01
0.15537688        	-3.3537346580e+01
0.15553388        	-3.3549902186e+01
0.15569067        	-3.3562728143e+01
0.15584733        	-3.3575756427e+01
0.15600396        	-3.3588908580e+01
0.15616062        	-3.3602100969e+01
0.15631739        	-3.3615244555e+01
0.15647429        	-3.3628247963e+01
0.15663135        	-3.3641022855e+01
0.15678856        	-3.3653481658e+01
0.15694592        	-3.3665540025e+01
0.15710341        	-3.3677116030e+01
0.157261          	-3.3688129890e+01
0.15741869        	-3.3698504514e+01
0.15757645        	-3.3708168073e+01
0.15773429        	-3.3717059435e+01
0.15789219        	-3.3725130314e+01
0.15805016        	-3.3732349917e+01
0.15820819        	-3.3738710007e+01
0.15836628        	-3.3744225918e+01
0.15852443        	-3.3748935597e+01
0.15868264        	-3.3752896496e+01
0.15884089        	-3.3756179284e+01
0.15899919        	-3.3758859912e+01
0.1591575         	-3.3761013343e+01
0.15931584        	-3.3762706988e+01
0.15947415        	-3.3763997629e+01
0.15963243        	-3.3764933209e+01
0.15979064        	-3.3765555707e+01
0.15994874        	-3.3765905729e+01
0.1601067         	-3.3766026860e+01
0.16026448        	-3.3765967350e+01
0.16042204        	-3.3765779256e+01
0.16057933        	-3.3765515264e+01
0.16073636        	-3.3765224384e+01
0.16089312        	-3.3764948005e+01
0.16104965        	-3.3764717590e+01
0.161206          	-3.3764554396e+01
0.16136225        	-3.3764471010e+01
0.16151847        	-3.3764473873e+01
0.16167474        	-3.3764565769e+01
0.1618311         	-3.3764747457e+01
0.1619876         	-3.3765017974e+01
0.16214425        	-3.3765373665e+01
0.16230104        	-3.3765806536e+01
0.16245797        	-3.3766302578e+01
0.16261502        	-3.3766840932e+01
0.16277217        	-3.3767394396e+01
0.16292941        	-3.3767931405e+01
0.16308674        	-3.3768419201e+01
0.16324414        	-3.3768827855e+01
0.1634016         	-3.3769134325e+01
0.16355914        	-3.3769326115e+01
0.16371674        	-3.3769403672e+01
0.16387441        	-3.3769381084e+01
0.16403214        	-3.3769284625e+01
0.16418993        	-3.3769149087e+01
0.16434777        	-3.3769012317e+01
0.16450566        	-3.3768908936e+01
0.16466357        	-3.3768864415e+01
0.1648215         	-3.3768891429e+01
0.16497943        	-3.3768988644e+01
0.16513732        	-3.3769142748e+01
0.16529515        	-3.3769332831e+01
0.16545289        	-3.3769535806e+01
0.16561049        	-3.3769731427e+01
0.16576793        	-3.3769905579e+01
0.16592517        	-3.3770051272e+01
0.16608216        	-3.3770167522e+01
0.16623892        	-3.3770256991e+01
0.16639544        	-3.3770323416e+01
0.16655176        	-3.3770369865e+01
0.16670794        	-3.3770398227e+01
0.16686403        	-3.3770409850e+01
0.16702011        	-3.3770406775e+01
0.16717624        	-3.3770392888e+01
0.16733249        	-3.3770374322e+01
0.16748886        	-3.3770358779e+01
0.16764539        	-3.3770353843e+01
0.16780207        	-3.3770364735e+01
0.16795889        	-3.3770392152e+01
0.16811584        	-3.3770430850e+01
0.16827292        	-3.3770469438e+01
0.16843009        	-3.3770491558e+01
0.16858736        	-3.3770478290e+01
0.16874472        	-3.3770411425e+01
0.16890217        	-3.3770276912e+01
0.16905969        	-3.3770068457e+01
0.16921728        	-3.3769789734e+01
0.16937496        	-3.3769455368e+01
0.1695327         	-3.3769090020e+01
0.1696905         	-3.3768725045e+01
0.16984837        	-3.3768394648e+01
0.17000627        	-3.3768130294e+01
0.17016422        	-3.3767955705e+01
0.17032216        	-3.3767883508e+01
0.17048011        	-3.3767914117e+01
0.17063802        	-3.3768037284e+01
0.17079586        	-3.3768235606e+01
0.1709536         	-3.3768489148e+01
0.17111121        	-3.3768779767e+01
0.17126865        	-3.3769094107e+01
0.17142589        	-3.3769424718e+01
0.17158289        	-3.3769769342e+01