# Region type :   sampledSurface planeZ5p
# Faces           : 966
# Area            : 8.2959466917e-02
# Scale factor    : 1.0000000000e+00
# Time            	areaAverage(p_rgh)
0.0020502426      	6.8999999998e+06
0.0077284894      	6.9000007947e+06
0.013399503       	6.9001077648e+06
0.018699284       	6.9009745356e+06
0.024384649       	6.9061798652e+06
0.030070014       	6.9310368784e+06
0.035755378       	6.9494089979e+06
0.041440743       	6.9453251758e+06
0.047126108       	6.9385624959e+06
0.052811473       	6.9207163027e+06
0.058496837       	6.9057815176e+06
0.064182202       	6.9044637074e+06
0.069867567       	6.9010253712e+06
0.075552932       	6.8968519105e+06
0.081238296       	6.8966255283e+06
0.086923661       	6.8994551869e+06
0.092609026       	6.9013386620e+06
0.098114853       	6.8994921263e+06
0.10369318        	6.8929329415e+06
0.109375          	6.8804732278e+06
0.11505682        	6.8654573537e+06
0.12073864        	6.8578977096e+06
0.12642045        	6.8617004755e+06
0.13210227        	6.8721799085e+06
0.13778409        	6.8850208421e+06
0.14346591        	6.8945244533e+06
0.14914773        	6.8985921612e+06
0.15482955        	6.9016403763e+06
0.16051136        	6.9034201601e+06
0.16619318        	6.9024303031e+06
0.171875          	6.9010045754e+06
0.17755682        	6.9015622773e+06
0.18323864        	6.9066344337e+06
0.18892045        	6.9168103011e+06
0.19460227        	6.9291445339e+06
0.20028409        	6.9376842369e+06
0.20596591        	6.9376787657e+06
0.21164773        	6.9300469247e+06
0.21732955        	6.9191141377e+06
0.22301136        	6.9092081243e+06
0.22869318        	6.9028818364e+06
0.234375          	6.8995394063e+06
0.24005682        	6.8978415401e+06
0.24573864        	6.8976330524e+06
0.25142045        	6.8982654277e+06
0.25710227        	6.8976995295e+06
0.26278409        	6.8939426796e+06
0.26846591        	6.8863945008e+06
0.27414773        	6.8765174614e+06
0.27982955        	6.8683709508e+06
0.28551136        	6.8657414927e+06
0.29119318        	6.8698058761e+06
0.296875          	6.8784674079e+06
0.30255682        	6.8877878930e+06
0.30823864        	6.8948855008e+06
0.31392045        	6.8990808058e+06
0.31960227        	6.9010781807e+06
0.32528409        	6.9017772204e+06
0.33096591        	6.9020541619e+06
0.33664773        	6.9031877745e+06
0.34232955        	6.9066915753e+06
0.34801136        	6.9132573564e+06
0.35369318        	6.9217738733e+06
0.359375          	6.9292633857e+06
0.36505682        	6.9323823291e+06
0.37073864        	6.9296519164e+06
0.37642045        	6.9224684716e+06
0.38210227        	6.9139639288e+06
0.38778409        	6.9069489968e+06
0.39346591        	6.9025843644e+06
0.39914773        	6.9003376813e+06
0.40482955        	6.8992612184e+06
0.41051136        	6.8984469417e+06
0.41619318        	6.8968055332e+06
0.421875          	6.8933372190e+06
0.42755682        	6.8876626740e+06
0.43323864        	6.8805587445e+06
0.43892045        	6.8742184125e+06
0.44460227        	6.8710512715e+06
0.45028409        	6.8723157417e+06
0.45596591        	6.8774867403e+06
0.46164773        	6.8844828964e+06
0.46732955        	6.8910292176e+06
0.47301136        	6.8958334965e+06
0.47869318        	6.8987636288e+06
0.484375          	6.9004410587e+06
0.49005682        	6.9017625255e+06
0.49573864        	6.9036876659e+06
0.50142045        	6.9070871203e+06
0.50710227        	6.9123000807e+06
0.51278409        	6.9186504749e+06
0.51846591        	6.9243820830e+06
0.52414773        	6.9274149841e+06
0.52982955        	6.9265192655e+06
0.53551136        	6.9220665505e+06
0.54119318        	6.9157760825e+06
0.546875          	6.9096504489e+06
0.55255682        	6.9049969914e+06
0.55823864        	6.9019383113e+06
0.56392045        	6.8999966926e+06
0.56960227        	6.8984533071e+06
0.57528409        	6.8964769006e+06
0.58096591        	6.8932451779e+06
0.58664773        	6.8885503927e+06
0.59232955        	6.8829921963e+06
0.59801136        	6.8780533284e+06
0.60369318        	6.8753693467e+06
0.609375          	6.8758411917e+06
0.61505682        	6.8792717525e+06
0.62073864        	6.8844455005e+06
0.62642045        	6.8898467302e+06
0.63210227        	6.8944169575e+06
0.63778409        	6.8977584463e+06
0.64346591        	6.9000633527e+06
0.64914773        	6.9019364851e+06
0.65482955        	6.9041378939e+06
0.66051136        	6.9073218703e+06
0.66619318        	6.9116914127e+06
0.671875          	6.9166847156e+06
0.67755682        	6.9210493062e+06
0.68323864        	6.9233873386e+06
0.68892045        	6.9228642047e+06
0.69460227        	6.9196610631e+06
0.70028409        	6.9148603038e+06
0.70596591        	6.9098093540e+06
0.71164773        	6.9055173483e+06
0.71732955        	6.9023202924e+06
0.72301136        	6.8999774155e+06
0.72869318        	6.8980109467e+06
0.734375          	6.8957782845e+06
0.74005682        	6.8926541294e+06
0.74573864        	6.8886134172e+06
0.75142045        	6.8841832210e+06
0.75710227        	6.8804506363e+06
0.76278409        	6.8785482792e+06
0.76846591        	6.8790243128e+06
0.77414773        	6.8817205102e+06
0.77982955        	6.8858282329e+06
0.78551136        	6.8903051120e+06
0.79119318        	6.8943792004e+06
0.796875          	6.8976721175e+06
0.80255682        	6.9002260186e+06
0.80823864        	6.9024534389e+06
0.81392045        	6.9049006043e+06
0.81960227        	6.9080015000e+06
0.82528409        	6.9118058718e+06
0.83096591        	6.9157967004e+06
0.83664773        	6.9190310195e+06
0.84232955        	6.9205602610e+06
0.84801136        	6.9198947952e+06
0.85369318        	6.9172341971e+06
0.859375          	6.9133270315e+06
0.86505682        	6.9091029779e+06
0.87073864        	6.9052906946e+06
0.87642045        	6.9021694519e+06
0.88210227        	6.8996766188e+06
0.88778409        	6.8974366678e+06
0.89346591        	6.8949664578e+06
0.89914773        	6.8919092480e+06
0.90482955        	6.8883397331e+06
0.91051136        	6.8847489573e+06
0.91619318        	6.8819895168e+06
0.921875          	6.8808084067e+06
0.92755682        	6.8814871364e+06
0.93323864        	6.8838419253e+06
0.93892045        	6.8872808430e+06
0.94460227        	6.8910883835e+06
0.95028409        	6.8947142719e+06
0.95596591        	6.8978588659e+06
0.96164773        	6.9005181722e+06
0.96732955        	6.9029602153e+06
0.97301136        	6.9055559160e+06
0.97869318        	6.9085594658e+06
0.984375          	6.9119064373e+06
0.99005682        	6.9151324160e+06
0.99573864        	6.9175205494e+06
1.0014205         	6.9184350137e+06
1.0071023         	6.9176201284e+06
1.0127841         	6.9152858459e+06
1.0184659         	6.9119864402e+06
1.0241477         	6.9083704238e+06
1.0298295         	6.9049566748e+06
1.0355114         	6.9019686645e+06
1.0411932         	6.8994003862e+06
1.046875          	6.8970101044e+06
1.0525568         	6.8944633560e+06
1.0582386         	6.8915540926e+06
1.0639205         	6.8884070990e+06
1.0696023         	6.8854824584e+06
1.0752841         	6.8834368154e+06
1.0809659         	6.8827549661e+06
1.0866477         	6.8835669216e+06
1.0923295         	6.8856663034e+06
1.0980114         	6.8886011934e+06
1.1036932         	6.8918902984e+06
1.109375          	6.8951490875e+06
1.1150568         	6.8981340264e+06
1.1207386         	6.9008101148e+06
1.1264205         	6.9033350639e+06
1.1321023         	6.9059406682e+06
1.1377841         	6.9087691681e+06
1.1434659         	6.9117010263e+06
1.1491477         	6.9143224488e+06
1.1548295         	6.9160871932e+06
1.1605114         	6.9165729427e+06
1.1661932         	6.9156664566e+06
1.171875          	6.9135843080e+06
1.1775568         	6.9107442141e+06
1.1832386         	6.9076019283e+06
1.1889205         	6.9045212128e+06
1.1946023         	6.9016838842e+06
