# Region type :   patch main_inlet
# Faces           : 348
# Area            : 8.2964479394e-02
# Scale factor    : 1.0000000000e+00
# Time            	sum(phi)
0.0022358089      	-3.3866180440e+01
0.014075595       	-3.3884021333e+01
0.021912161       	-3.3916194237e+01
0.029193799       	-3.3926621492e+01
0.035721278       	-3.3924625030e+01
0.041876577       	-3.3917226091e+01
0.047379096       	-3.3920256493e+01
0.052598689       	-3.3922189807e+01
0.057757214       	-3.3926361028e+01
0.06273718        	-3.3927435952e+01
0.067524242       	-3.3921322919e+01
0.072043677       	-3.3902644174e+01
0.07632783        	-3.3856191416e+01
0.080500844       	-3.3768256616e+01
0.084620988       	-3.3646529472e+01
0.088681048       	-3.3532398798e+01
0.092662512       	-3.3469802717e+01
0.096538581       	-3.3453678177e+01
0.10037629        	-3.3445126913e+01
0.10411678        	-3.3430335287e+01
0.10783272        	-3.3418460209e+01
0.11153974        	-3.3413281995e+01
0.11524101        	-3.3413482475e+01
0.11893577        	-3.3417998343e+01
0.12262338        	-3.3423546803e+01
0.12631677        	-3.3426498417e+01
0.13000497        	-3.3426598187e+01
0.13368892        	-3.3425187551e+01
0.13737395        	-3.3422459887e+01
0.14106986        	-3.3419069061e+01
0.14478583        	-3.3417734628e+01
0.14853668        	-3.3422821909e+01
0.15233683        	-3.3440702163e+01
0.15619154        	-3.3480062320e+01
0.16009314        	-3.3548009518e+01
0.16403213        	-3.3640532654e+01
0.16799511        	-3.3736090003e+01
0.17198656        	-3.3807699992e+01
0.17602297        	-3.3845855718e+01
0.18010924        	-3.3864077606e+01
0.18424423        	-3.3878808552e+01
0.18839048        	-3.3892062841e+01
0.19253674        	-3.3898197772e+01
0.196683          	-3.3895707738e+01
0.20081633        	-3.3888052265e+01
0.20488616        	-3.3880044994e+01
0.20893859        	-3.3874708535e+01
0.21296725        	-3.3872752388e+01
0.21697088        	-3.3873726439e+01
0.22094665        	-3.3876618997e+01
0.22488572        	-3.3878585810e+01
0.22877727        	-3.3874438418e+01
0.2326153         	-3.3858141676e+01
0.23640001        	-3.3824933018e+01
0.2401375         	-3.3773316331e+01
0.24383638        	-3.3706925456e+01
0.24750387        	-3.3634939328e+01
0.25113708        	-3.3569363518e+01
0.25472681        	-3.3519296520e+01
0.25826447        	-3.3486367421e+01
0.26173798        	-3.3465678738e+01
0.26513572        	-3.3451159585e+01
0.26844056        	-3.3440051219e+01
0.27162251        	-3.3432840938e+01
0.27464059        	-3.3430478093e+01
0.27744854        	-3.3432534374e+01
0.28002236        	-3.3437470315e+01
0.28237346        	-3.3443736724e+01
0.28451527        	-3.3450285619e+01
0.28648429        	-3.3456674870e+01
0.2883257         	-3.3462873546e+01
0.29008232        	-3.3469027224e+01
0.29177777        	-3.3475067890e+01
0.29342506        	-3.3480595130e+01
0.29504027        	-3.3485611606e+01
0.29664018        	-3.3490475036e+01
0.29824009        	-3.3495064027e+01
0.29984001        	-3.3498739140e+01
0.30148318        	-3.3501066600e+01
0.30315483        	-3.3502503264e+01
0.30485536        	-3.3504146282e+01
0.30659531        	-3.3506604889e+01
0.3083889         	-3.3510058248e+01
0.31024643        	-3.3514863920e+01
0.31217           	-3.3522212311e+01
0.31416004        	-3.3533855762e+01
0.31622522        	-3.3551048968e+01
0.31838098        	-3.3574135468e+01
0.32063567        	-3.3602945040e+01
0.32298359        	-3.3637326170e+01
0.32542376        	-3.3676362429e+01
0.32797009        	-3.3717304467e+01
0.33063432        	-3.3756378235e+01
0.33341286        	-3.3790621638e+01
0.33631542        	-3.3818330871e+01
0.33934949        	-3.3838446141e+01
0.34249927        	-3.3851568953e+01
0.34572903        	-3.3858876691e+01
0.34900455        	-3.3860267618e+01
0.35228708        	-3.3856005026e+01
0.3555509         	-3.3847631727e+01
0.35878855        	-3.3836697138e+01
0.36199464        	-3.3824546432e+01
0.365168          	-3.3812758627e+01
0.36831279        	-3.3802225773e+01
0.37143046        	-3.3793083667e+01
0.37452698        	-3.3785882912e+01
0.37759734        	-3.3781322302e+01
0.38063531        	-3.3779316357e+01
0.3836296         	-3.3778855546e+01
0.38657219        	-3.3777851972e+01
0.38946078        	-3.3773617774e+01
0.39229314        	-3.3763984816e+01
0.39509563        	-3.3747609007e+01
0.39782594        	-3.3724636770e+01
0.400542          	-3.3695550613e+01
0.40324092        	-3.3662088252e+01
0.40592191        	-3.3626549955e+01
0.40858751        	-3.3591450102e+01
0.41123843        	-3.3559210919e+01
0.41387458        	-3.3531641291e+01
0.4164973         	-3.3509545842e+01
0.41911082        	-3.3492905081e+01
0.42172078        	-3.3481263544e+01
0.42433537        	-3.3474010404e+01
0.42696318        	-3.3470670574e+01
0.42961201        	-3.3470935574e+01
0.43228833        	-3.3474462169e+01
0.43499652        	-3.3480659189e+01
0.437739          	-3.3488678628e+01
0.44051633        	-3.3497548714e+01
0.44332909        	-3.3506316619e+01
0.44617467        	-3.3514168793e+01
0.44905062        	-3.3520550240e+01
0.45195691        	-3.3525132052e+01
0.45489299        	-3.3527729556e+01
0.4578629         	-3.3528459104e+01
0.46087167        	-3.3528041550e+01
0.46393056        	-3.3528011779e+01
0.46704497        	-3.3530685356e+01
0.47022395        	-3.3538792049e+01
0.4734652         	-3.3554724614e+01
0.47676048        	-3.3579662093e+01
0.48009674        	-3.3612944813e+01
0.483464          	-3.3652010253e+01
0.4868387         	-3.3692721545e+01
0.49025553        	-3.3731265336e+01
0.49367464        	-3.3763747719e+01
0.49709375        	-3.3788374174e+01
0.50051429        	-3.3804935499e+01
0.50392789        	-3.3814115464e+01
0.50730187        	-3.3817008888e+01
0.51062323        	-3.3815038408e+01
0.51388488        	-3.3809811450e+01
0.51708651        	-3.3802930406e+01
0.52023527        	-3.3795754069e+01
0.52333721        	-3.3789285646e+01
0.52639922        	-3.3784156298e+01
0.52942631        	-3.3780705689e+01
0.53242128        	-3.3779031445e+01
0.53538441        	-3.3778923602e+01
0.53831358        	-3.3779736338e+01
0.541206          	-3.3780334976e+01
0.54405911        	-3.3779241618e+01
0.5468724         	-3.3774943946e+01
0.54964859        	-3.3766239651e+01
0.55239228        	-3.3752483848e+01
0.55510785        	-3.3733685736e+01
0.55780146        	-3.3710458478e+01
0.56047676        	-3.3683936939e+01
0.56313676        	-3.3655600817e+01
0.56578484        	-3.3627065699e+01
0.5684227         	-3.3599900617e+01
0.5710524         	-3.3575416181e+01
0.57367319        	-3.3554547604e+01
0.57629277        	-3.3537717528e+01
0.57891235        	-3.3525023329e+01
0.58153728        	-3.3516279158e+01
0.58417482        	-3.3511157766e+01
0.58683166        	-3.3509250361e+01
0.58950966        	-3.3510055682e+01
0.59220831        	-3.3512947154e+01
0.59494224        	-3.3517211803e+01
0.59767616        	-3.3522017197e+01
0.60042017        	-3.3526656422e+01
0.60323849        	-3.3530630614e+01
0.60608521        	-3.3533419152e+01
0.60896002        	-3.3534789508e+01
0.61186442        	-3.3534749417e+01
0.614802          	-3.3533643816e+01
0.61777708        	-3.3532309347e+01
0.6207956         	-3.3532081891e+01
0.62386354        	-3.3534692110e+01
0.62698303        	-3.3541995154e+01
0.63015292        	-3.3555475609e+01
0.63336796        	-3.3575725856e+01
0.6366214         	-3.3602137296e+01
0.63990724        	-3.3632942644e+01
0.64321974        	-3.3665557262e+01
0.64655753        	-3.3697193819e+01
0.64991515        	-3.3725381807e+01
0.6532868         	-3.3748459973e+01
0.65665959        	-3.3765675474e+01
0.66001901        	-3.3777055676e+01
0.66335101        	-3.3783125825e+01
0.66664466        	-3.3784735644e+01
0.66989497        	-3.3782988699e+01
0.67310202        	-3.3779168699e+01
0.67626757        	-3.3774607056e+01
0.67939568        	-3.3770468351e+01
0.68248736        	-3.3767577092e+01
0.68554514        	-3.3766303274e+01
0.68856903        	-3.3766555218e+01
0.69156293        	-3.3767821875e+01
0.6945233         	-3.3769246359e+01
0.69748368        	-3.3769745383e+01
0.70043062        	-3.3768107242e+01
0.70328288        	-3.3763402374e+01
0.70610374        	-3.3754902541e+01
0.70889566        	-3.3742301961e+01
0.71166196        	-3.3725751089e+01
0.71440635        	-3.3705810978e+01
0.71713197        	-3.3683414586e+01
0.71984133        	-3.3659760261e+01
0.72253749        	-3.3636047202e+01
0.72522269        	-3.3613407321e+01
0.72789948        	-3.3592811524e+01
0.73057158        	-3.3574973319e+01
0.73324191        	-3.3560357976e+01
0.73591547        	-3.3549162649e+01
0.73859605        	-3.3541357864e+01
0.74128783        	-3.3536727381e+01
0.74399421        	-3.3534889147e+01
0.74671938        	-3.3535308787e+01
0.74946494        	-3.3537342190e+01
0.75223268        	-3.3540274319e+01
0.7550235         	-3.3543373182e+01
0.75783833        	-3.3545983445e+01
0.7606778         	-3.3547619195e+01
0.76354472        	-3.3548049415e+01
0.76643842        	-3.3547364001e+01
0.76936372        	-3.3546002670e+01
0.77232219        	-3.3544752299e+01
0.77531757        	-3.3544685857e+01
0.77835253        	-3.3547042746e+01
0.78142755        	-3.3553039384e+01
0.78453969        	-3.3563615792e+01
0.7876909         	-3.3579211301e+01
0.79088167        	-3.3599577478e+01
0.79408108        	-3.3623488889e+01
0.7972805         	-3.3649253004e+01
0.800491          	-3.3675110865e+01
0.80377223        	-3.3699716579e+01
0.80706436        	-3.3721058467e+01
0.81035935        	-3.3738070327e+01
0.81364733        	-3.3750292113e+01
0.81691907        	-3.3757849732e+01
0.82016647        	-3.3761327720e+01
0.82338441        	-3.3761636034e+01
0.82656988        	-3.3759862152e+01
0.82972321        	-3.3757130936e+01
0.83284398        	-3.3754439340e+01
0.83593389        	-3.3752530069e+01
0.83899282        	-3.3751795302e+01
0.84202176        	-3.3752226864e+01
0.84502013        	-3.3753435929e+01
0.84798776        	-3.3754729623e+01
0.85092396        	-3.3755230462e+01
0.85383061        	-3.3754015181e+01
0.85670692        	-3.3750262585e+01
0.8595558         	-3.3743375757e+01
0.86237886        	-3.3733080976e+01
0.86517885        	-3.3719467025e+01
0.86795877        	-3.3702970371e+01
0.87072134        	-3.3684317304e+01
0.87346844        	-3.3664433527e+01
0.87620287        	-3.3644313817e+01
0.87892468        	-3.3624937183e+01
0.88164408        	-3.3607091030e+01
0.88436348        	-3.3591443945e+01
0.88708287        	-3.3578466003e+01
0.88980227        	-3.3568394376e+01
0.89252166        	-3.3561240057e+01
0.89524106        	-3.3556813040e+01
0.89796045        	-3.3554752837e+01
0.90069023        	-3.3554561995e+01
0.90346124        	-3.3555676587e+01
0.90625048        	-3.3557462872e+01
0.90905914        	-3.3559296312e+01
0.91188878        	-3.3560650634e+01
0.91474018        	-3.3561181474e+01
0.91761466        	-3.3560814231e+01
0.92051444        	-3.3559738684e+01
0.92344148        	-3.3558414423e+01
0.92639761        	-3.3557553608e+01
0.92938526        	-3.3558037895e+01
0.93240485        	-3.3560799375e+01
0.93545684        	-3.3566679846e+01
0.93854123        	-3.3576271649e+01
0.94165689        	-3.3589757280e+01
0.94480146        	-3.3606817216e+01
0.94797224        	-3.3626633952e+01
0.95116585        	-3.3647987840e+01
0.95437723        	-3.3669436421e+01
0.95760266        	-3.3689561744e+01
0.96083853        	-3.3707171277e+01
0.96407501        	-3.3721424085e+01
0.96730842        	-3.3731957195e+01
0.97052754        	-3.3738806813e+01
0.97372902        	-3.3742399632e+01
0.97690711        	-3.3743438952e+01
0.98006117        	-3.3742793041e+01
0.98319033        	-3.3741361335e+01
0.98629658        	-3.3739938986e+01
0.989376          	-3.3739097184e+01
0.99242365        	-3.3739107066e+01
0.99545419        	-3.3739918575e+01
0.99848473        	-3.3741197128e+01
1.0014826         	-3.3742347565e+01
1.0044277         	-3.3742653778e+01
1.0073467         	-3.3741403276e+01
1.0102404         	-3.3737979881e+01
1.0131103         	-3.3731936229e+01
1.0159572         	-3.3723080898e+01
1.0187839         	-3.3711515024e+01
1.0215919         	-3.3697610022e+01
1.0243834         	-3.3681945226e+01
1.0271603         	-3.3665262651e+01
1.0299256         	-3.3648359875e+01
1.0326817         	-3.3632019308e+01
1.0354307         	-3.3616936929e+01
1.0381757         	-3.3603664394e+01
1.0409204         	-3.3592578035e+01
1.0436664         	-3.3583880026e+01
1.0464171         	-3.3577584812e+01
1.0491753         	-3.3573537995e+01
1.0519433         	-3.3571432254e+01
1.0547241         	-3.3570835172e+01
1.0575182         	-3.3571229776e+01
1.0603275         	-3.3572074476e+01
1.0631544         	-3.3572878882e+01
1.0659988         	-3.3573268693e+01
1.0688618         	-3.3573041061e+01
1.0717453         	-3.3572203467e+01
1.0746511         	-3.3570987823e+01
1.0775787         	-3.3569834258e+01
1.0805343         	-3.3569345720e+01
1.083515          	-3.3570224373e+01
1.0865202         	-3.3573166384e+01
1.0895494         	-3.3578750900e+01
1.0926181         	-3.3587383608e+01
1.0956939         	-3.3599008702e+01
1.0987697         	-3.3613228373e+01
1.1018814         	-3.3629547196e+01
1.1050321         	-3.3647090666e+01
1.1081983         	-3.3664673288e+01
1.1113763         	-3.3681219313e+01
1.1145611         	-3.3695799649e+01
1.1177482         	-3.3707778159e+01
1.1209316         	-3.3716848707e+01
1.124106          	-3.3723025330e+01
1.1272675         	-3.3726619683e+01
1.1304125         	-3.3728175149e+01
1.1335392         	-3.3728369667e+01
1.1366462         	-3.3727909808e+01
1.1397319         	-3.3727413243e+01
1.1427965         	-3.3727311963e+01
1.1458391         	-3.3727799117e+01
1.1488604         	-3.3728815733e+01
1.1518596         	-3.3730075045e+01
1.1548356         	-3.3731116659e+01
1.1577887         	-3.3731380297e+01
1.1607198         	-3.3730293546e+01
1.1636292         	-3.3727362157e+01
1.1665178         	-3.3722243753e+01
1.1693866         	-3.3714795248e+01
1.1722381         	-3.3705091994e+01
1.1750723         	-3.3693433674e+01
1.1778904         	-3.3680299374e+01
1.1806966         	-3.3666279132e+01
1.1834942         	-3.3652022326e+01
1.1862865         	-3.3638174045e+01
1.189058          	-3.3625398325e+01
1.1918282         	-3.3614075851e+01
1.1945983         	-3.3604536666e+01
1.1973684         	-3.3596959685e+01
