# Region type :   patch main_inlet
# Faces           : 348
# Area            : 8.2964484169e-02
# Scale factor    : 1.0000000000e+00
# Time            	areaAverage(p_rgh)
0.0014759729      	6.9422804031e+06
0.0041173677      	6.9446121048e+06
0.0067587626      	6.9443972613e+06
0.0094001574      	6.9443960816e+06
0.011899606       	6.9447356946e+06
0.014536573       	6.9466405007e+06
0.01717841        	6.9484296029e+06
0.019820247       	6.9519095131e+06
0.022462084       	6.9656981172e+06
0.025103921       	6.9794661349e+06
0.027745758       	6.9787055102e+06
0.030387595       	6.9776223722e+06
0.033029432       	6.9776768518e+06
0.035671269       	6.9765097788e+06
0.038313106       	6.9713599224e+06
0.040954943       	6.9627274806e+06
0.04359678        	6.9603610893e+06
0.046238617       	6.9597678768e+06
0.048880454       	6.9581313728e+06
0.051522291       	6.9607843507e+06
0.054164128       	6.9650898041e+06
0.056805965       	6.9668377801e+06
0.059447802       	6.9690960792e+06
0.062089639       	6.9689466740e+06
0.064731476       	6.9666481972e+06
0.067373313       	6.9638416398e+06
0.07001515        	6.9605306324e+06
0.072656987       	6.9568385428e+06
0.075298824       	6.9466130625e+06
0.077940661       	6.9259858818e+06
0.080582498       	6.8971992022e+06
0.083224335       	6.8701605335e+06
0.085866172       	6.8547004562e+06
0.088508009       	6.8514707754e+06
0.091149846       	6.8540996539e+06
0.093791683       	6.8577495897e+06
0.09643352        	6.8599053390e+06
0.099075357       	6.8579966471e+06
0.10171731        	6.8520877141e+06
0.10435931        	6.8446606678e+06
0.10700132        	6.8381358734e+06
0.10964333        	6.8337169566e+06
0.11228534        	6.8310366363e+06
0.11492734        	6.8301584650e+06
0.11756935        	6.8328089821e+06
0.12021136        	6.8389356318e+06
0.12285337        	6.8450774993e+06
0.12549538        	6.8478987407e+06
0.12813738        	6.8469642817e+06
0.13077939        	6.8438938178e+06
0.1334214         	6.8405715514e+06
0.13606341        	6.8383430020e+06
0.13870542        	6.8375881448e+06
0.14134742        	6.8379390136e+06
0.14398943        	6.8391372882e+06
0.14663144        	6.8413454203e+06
0.14927345        	6.8452970053e+06
0.15191546        	6.8525681887e+06
0.15455746        	6.8651086079e+06
0.15719947        	6.8836196667e+06
0.15984148        	6.9057069443e+06
0.16248349        	6.9261841499e+06
0.1651255         	6.9403668931e+06
0.1677675         	6.9469105798e+06
0.17040951        	6.9475935937e+06
0.17305152        	6.9456447142e+06
0.17569353        	6.9442549103e+06
0.17833554        	6.9455034278e+06
0.18097754        	6.9495914322e+06
0.18361955        	6.9550095717e+06
0.18626156        	6.9600107600e+06
0.18890357        	6.9638809189e+06
0.19154557        	6.9666001173e+06
0.19418758        	6.9678448178e+06
0.19682959        	6.9670604720e+06
0.1994716         	6.9644837401e+06
0.20211361        	6.9615299271e+06
0.20475561        	6.9599092760e+06
0.20739762        	6.9604310315e+06
0.21003963        	6.9625598408e+06
0.21268164        	6.9648649383e+06
0.21532365        	6.9659814987e+06
0.21796565        	6.9654173608e+06
0.22060766        	6.9635961775e+06
0.22324967        	6.9611580568e+06
0.22589168        	6.9580394020e+06
0.22853369        	6.9530933321e+06
0.23117569        	6.9446853174e+06
0.2338177         	6.9319018141e+06
0.23645971        	6.9154761473e+06
0.23910172        	6.8977293285e+06
0.24174373        	6.8816255559e+06
0.24438573        	6.8695950875e+06
0.24702774        	6.8626509550e+06
0.24966975        	6.8600598382e+06
0.25231176        	6.8598954768e+06
0.25495376        	6.8600946494e+06
0.25759577        	6.8591176183e+06
0.26023778        	6.8563420086e+06
0.26287979        	6.8522305056e+06
0.2655218         	6.8478559828e+06
0.2681638         	6.8441710992e+06
0.27080581        	6.8416700632e+06
0.27344782        	6.8404422031e+06
0.27608983        	6.8402480829e+06
0.27873184        	6.8405270442e+06
0.28137384        	6.8405612680e+06
0.28401585        	6.8398615559e+06
0.28665786        	6.8384858125e+06
0.28929987        	6.8369948565e+06
0.29194188        	6.8360957277e+06
0.29458388        	6.8362890642e+06
0.29722589        	6.8377574982e+06
0.2998679         	6.8404632685e+06
0.30250991        	6.8444126874e+06
0.30515192        	6.8500347406e+06
0.30779392        	6.8582391075e+06
0.31043593        	6.8698034347e+06
0.31307794        	6.8844629758e+06
0.31571995        	6.9005186169e+06
0.31836196        	6.9154393492e+06
0.32100396        	6.9270810664e+06
0.32364597        	6.9345770355e+06
0.32628798        	6.9384223241e+06
0.32892999        	6.9400100545e+06
0.33157199        	6.9409040775e+06
0.334214          	6.9422203164e+06
0.33685601        	6.9444854592e+06
0.33949802        	6.9477635714e+06
0.34214003        	6.9517247461e+06
0.34478203        	6.9557527016e+06
0.34742404        	6.9591733273e+06
0.35006605        	6.9615077784e+06
0.35270806        	6.9626936389e+06
0.35535007        	6.9631333590e+06
0.35799207        	6.9634514040e+06
0.36063408        	6.9641237704e+06
0.36327609        	6.9651919040e+06
0.3659181         	6.9662294331e+06
0.36856011        	6.9666174764e+06
0.37120211        	6.9659446107e+06
0.37384412        	6.9641399492e+06
0.37648613        	6.9612278994e+06
0.37912814        	6.9570330256e+06
0.38177015        	6.9511465844e+06
0.38441215        	6.9431213299e+06
0.38705416        	6.9327578413e+06
0.38969617        	6.9204029795e+06
0.39233818        	6.9070650555e+06
0.39498018        	6.8941741664e+06
0.39762219        	6.8831346804e+06
0.4002642         	6.8749157017e+06
0.40290621        	6.8696827679e+06
0.40554822        	6.8666972168e+06
0.40819022        	6.8648183570e+06
0.41083223        	6.8630162900e+06
0.41347424        	6.8605338774e+06
0.41611625        	6.8571400196e+06
0.41875826        	6.8532068978e+06
0.42140026        	6.8493406754e+06
0.42404227        	6.8460156457e+06
0.42668428        	6.8434201217e+06
0.42932629        	6.8414746929e+06
0.4319683         	6.8399646350e+06
0.4346103         	6.8386876500e+06
0.43725231        	6.8375385529e+06
0.43989432        	6.8365886340e+06
0.44253633        	6.8361394457e+06
0.44517834        	6.8365629240e+06
0.44782034        	6.8380388926e+06
0.45046235        	6.8405998976e+06
0.45310436        	6.8443636392e+06
0.45574637        	6.8495866918e+06
0.45838838        	6.8565932365e+06
0.46103038        	6.8656419336e+06
0.46367239        	6.8766836212e+06
0.4663144         	6.8891212188e+06
0.46895641        	6.9018145418e+06
0.47159841        	6.9134237046e+06
0.47424042        	6.9229029766e+06
0.47688243        	6.9298412703e+06
0.47952444        	6.9344883092e+06
0.48216645        	6.9375505848e+06
0.48480845        	6.9398663130e+06
0.48745046        	6.9421416293e+06
0.49009247        	6.9448182722e+06
0.49273448        	6.9480018963e+06
0.49537649        	6.9514814288e+06
0.49801849        	6.9548923740e+06
0.5006605         	6.9579096496e+06
0.50330251        	6.9603585476e+06
0.50594452        	6.9622308165e+06
0.50858653        	6.9636168294e+06
0.51122853        	6.9645973600e+06
0.51387054        	6.9651622661e+06
0.51651255        	6.9651823563e+06
0.51915456        	6.9644590628e+06
0.52179657        	6.9628278001e+06
0.52443857        	6.9602193795e+06
0.52708058        	6.9565919317e+06
0.52972259        	6.9518228046e+06
0.5323646         	6.9457040728e+06
0.53500661        	6.9380585376e+06
0.53764861        	6.9288837228e+06
0.54029062        	6.9184564207e+06
0.54293263        	6.9073725195e+06
0.54557464        	6.8964657690e+06
0.54821664        	6.8866023330e+06
0.55085865        	6.8784429117e+06
0.55350066        	6.8722495087e+06
0.55614267        	6.8678236210e+06
0.55878468        	6.8646295674e+06
0.56142668        	6.8620124712e+06
0.56406869        	6.8594015009e+06
0.5667107         	6.8564788271e+06
0.56935271        	6.8532419959e+06
0.57199472        	6.8498915168e+06
0.57463672        	6.8466766239e+06
0.57727873        	6.8438110819e+06
0.57992074        	6.8414113580e+06
0.58256275        	6.8395143009e+06
0.58520476        	6.8381625796e+06
0.58784676        	6.8374554466e+06
0.59048877        	6.8375286733e+06
0.59313078        	6.8385210627e+06
0.59577279        	6.8405332791e+06
0.5984148         	6.8435937929e+06
0.6010568         	6.8477076066e+06
0.60369881        	6.8529362244e+06
0.60634082        	6.8594012700e+06
0.60898283        	6.8672017442e+06
0.61162483        	6.8763020078e+06
0.61426684        	6.8864322832e+06
0.61690885        	6.8970528096e+06
0.61955086        	6.9074354699e+06
0.62219287        	6.9168453662e+06
0.62483487        	6.9247476003e+06
0.62747688        	6.9309395514e+06
0.63011889        	6.9355618299e+06
0.6327609         	6.9390081239e+06
0.63540291        	6.9417795777e+06
0.63804491        	6.9443418826e+06
0.64068692        	6.9470073219e+06
0.64332893        	6.9498785314e+06
0.64597094        	6.9528774383e+06
0.64861295        	6.9558161906e+06
0.65125495        	6.9584876151e+06
0.65389696        	6.9607289988e+06
0.65653897        	6.9624291179e+06
0.65918098        	6.9634984547e+06
0.66182299        	6.9638461769e+06
0.66446499        	6.9633739100e+06
0.667107          	6.9619955214e+06
0.66974901        	6.9596612072e+06
0.67239102        	6.9563649031e+06
0.67503303        	6.9521298741e+06
0.67767503        	6.9469668673e+06
0.68031704        	6.9408448901e+06
0.68295905        	6.9337245445e+06
0.68560106        	6.9256407394e+06
0.68824306        	6.9167668136e+06
0.69088507        	6.9074356935e+06
0.69352708        	6.8981113980e+06
0.69616909        	6.8893099061e+06
0.6988111         	6.8814862384e+06
0.7014531         	6.8749234111e+06
0.70409511        	6.8696703912e+06
0.70673712        	6.8655519672e+06
0.70937913        	6.8622406984e+06
0.71202114        	6.8593607764e+06
0.71466314        	6.8565932767e+06
0.71730515        	6.8537565913e+06
0.71994716        	6.8508191500e+06
0.72258917        	6.8478698051e+06
0.72523118        	6.8450750570e+06
0.72787318        	6.8426235174e+06
0.73051519        	6.8406881888e+06
0.7331572         	6.8394238596e+06
0.73579921        	6.8389767746e+06
0.73844122        	6.8394752775e+06
0.74108322        	6.8410140761e+06
0.74372523        	6.8436354770e+06
0.74636724        	6.8473177847e+06
0.74900925        	6.8519939036e+06
0.75165125        	6.8575990483e+06
0.75429326        	6.8641007839e+06
0.75693527        	6.8714723061e+06
0.75957728        	6.8796393402e+06
0.76221929        	6.8884209981e+06
0.76486129        	6.8975042843e+06
0.7675033         	6.9064731097e+06
0.77014531        	6.9148833776e+06
0.77278732        	6.9223629245e+06
0.77542933        	6.9286936768e+06
0.77807133        	6.9338459180e+06
0.78071334        	6.9379594295e+06
0.78335535        	6.9412940127e+06
0.78599736        	6.9441563595e+06
0.78863937        	6.9468153853e+06
0.79128137        	6.9494437612e+06
0.79392338        	6.9520948151e+06
0.79656539        	6.9547057430e+06
0.7992074         	6.9571382871e+06
0.80184941        	6.9592276491e+06
0.80449141        	6.9608074175e+06
0.80713342        	6.9617220365e+06
0.80977543        	6.9618363647e+06
0.81241744        	6.9610367949e+06
0.81505945        	6.9592485141e+06
0.81770145        	6.9564549315e+06
0.82034346        	6.9526963789e+06
0.82298547        	6.9480564035e+06
0.82562748        	6.9426273721e+06
0.82826948        	6.9364776849e+06
0.83091149        	6.9296576539e+06
0.8335535         	6.9222386125e+06
0.83619551        	6.9143527515e+06
0.83883752        	6.9062115871e+06
0.84147952        	6.8980934937e+06
0.84412153        	6.8903091619e+06
0.84676354        	6.8831438399e+06
0.84940555        	6.8768028221e+06
0.85204756        	6.8713742444e+06
0.85468956        	6.8668237645e+06
0.85733157        	6.8630149862e+06
0.85997358        	6.8597477527e+06
0.86261559        	6.8568099339e+06
0.8652576         	6.8540308599e+06
0.8678996         	6.8513175513e+06
0.87054161        	6.8486711875e+06
0.87318362        	6.8461825984e+06
0.87582563        	6.8440053102e+06
0.87846764        	6.8423210795e+06
0.88110964        	6.8413122496e+06
0.88375165        	6.8411461732e+06
0.88639366        	6.8419599078e+06
0.88903567        	6.8438429252e+06
0.89167768        	6.8468211668e+06
0.89431968        	6.8508468528e+06
0.89696169        	6.8558108618e+06
0.8996037         	6.8615800759e+06
0.90224571        	6.8680358732e+06
0.90488771        	6.8750792523e+06
0.90752972        	6.8826064137e+06
0.91017173        	6.8904740421e+06
0.91281374        	6.8984806806e+06
0.91545575        	6.9063750074e+06
0.91809775        	6.9138883305e+06
0.92073976        	6.9207834336e+06
0.92338177        	6.9268968135e+06
0.92602378        	6.9321597062e+06
0.92866579        	6.9366017285e+06
0.93130779        	6.9403368691e+06
0.9339498         	6.9435320109e+06
0.93659181        	6.9463635427e+06
0.93923382        	6.9489752459e+06
0.94187583        	6.9514462285e+06
0.94451783        	6.9537733878e+06
0.94715984        	6.9558828577e+06
0.94980185        	6.9576535862e+06
0.95244386        	6.9589361308e+06
0.95508587        	6.9595744522e+06
0.95772787        	6.9594248296e+06
0.96036988        	6.9583669380e+06
0.96301189        	6.9563254798e+06
0.9656539         	6.9532904063e+06
0.9682959         	6.9493176506e+06
0.97093791        	6.9445171515e+06
0.97357992        	6.9390203698e+06
0.97622193        	6.9329462949e+06
0.97886394        	6.9263948917e+06
0.98150594        	6.9194637865e+06
0.98414795        	6.9122701256e+06
0.98678996        	6.9049629648e+06
0.98943197        	6.8977208649e+06
0.99207398        	6.8907337247e+06
0.99471598        	6.8841765576e+06
0.99735799        	6.8781840659e+06
1                 	6.8728325037e+06
1.002642          	6.8681366160e+06
1.005284          	6.8640536196e+06
1.007926          	6.8604945138e+06
1.010568          	6.8573449050e+06
1.01321           	6.8544942358e+06
1.015852          	6.8518657409e+06
1.0184941         	6.8494393928e+06
1.0211361         	6.8472622677e+06
1.0237781         	6.8454409069e+06
1.0264201         	6.8441200480e+06
1.0290621         	6.8434602466e+06
1.0317041         	6.8436162219e+06
1.0343461         	6.8447167899e+06
1.0369881         	6.8468439668e+06
1.0396301         	6.8500159152e+06
1.0422721         	6.8541758926e+06
1.0449141         	6.8592016007e+06
1.0475561         	6.8649386035e+06
1.0501982         	6.8712348190e+06
1.0528402         	6.8779559368e+06
1.0554822         	6.8849801262e+06
1.0581242         	6.8921794145e+06
1.0607662         	6.8994081653e+06
1.0634082         	6.9065044563e+06
1.0660502         	6.9133024683e+06
1.0686922         	6.9196542484e+06
1.0713342         	6.9254506171e+06
1.0739762         	6.9306294402e+06
1.0766182         	6.9351781291e+06
1.0792602         	6.9391326935e+06
1.0819022         	6.9425686964e+06
1.0845443         	6.9455803339e+06
1.0871863         	6.9482554893e+06
1.0898283         	6.9506521915e+06
1.0924703         	6.9527809232e+06
1.0951123         	6.9546031332e+06
1.0977543         	6.9560390273e+06
1.1003963         	6.9569772894e+06
1.1030383         	6.9572915632e+06
1.1056803         	6.9568577132e+06
1.1083223         	6.9555685102e+06
1.1109643         	6.9533560254e+06
1.1136063         	6.9502129174e+06
1.1162483         	6.9461961521e+06
1.1188904         	6.9414169986e+06
1.1215324         	6.9360133445e+06
1.1241744         	6.9301202388e+06
1.1268164         	6.9238585876e+06
1.1294584         	6.9173388281e+06
1.1321004         	6.9106711279e+06
1.1347424         	6.9039738615e+06
1.1373844         	6.8973721328e+06
1.1400264         	6.8909882090e+06
1.1426684         	6.8849305079e+06
1.1453104         	6.8792838672e+06
1.1479524         	6.8741034537e+06
1.1505945         	6.8694158508e+06
1.1532365         	6.8652209116e+06
1.1558785         	6.8614922973e+06
1.1585205         	6.8581860794e+06
1.1611625         	6.8552524550e+06
1.1638045         	6.8526533547e+06
1.1664465         	6.8503797225e+06
1.1690885         	6.8484628892e+06
1.1717305         	6.8469757478e+06
1.1743725         	6.8460231615e+06
1.1770145         	6.8457257332e+06
1.1796565         	6.8462056030e+06
1.1822985         	6.8475661719e+06
1.1849406         	6.8498721874e+06
1.1875826         	6.8531331066e+06
1.1902246         	6.8572920051e+06
1.1928666         	6.8622326972e+06
1.1955086         	6.8678056383e+06
1.1981506         	6.8738560514e+06
