# Solver information
# Time            	H2_solver         	H2_initial        	H2_final          	H2_iters          	H2_converged      	U_solver          	Ux_initial        	Ux_final          	Ux_iters          	Uy_initial        	Uy_final          	Uy_iters          	Uz_initial        	Uz_final          	Uz_iters          	U_converged       	k_solver          	k_initial         	k_final           	k_iters           	k_converged       	omega_solver      	omega_initial     	omega_final       	omega_iters       	omega_converged   	p_rgh_solver      	p_rgh_initial     	p_rgh_final       	p_rgh_iters       	p_rgh_converged   
1.200048e-05      	DILUPBiCGStab	1.0000000000e+00	1.9826654920e-04	1	true	smoothSolver	1.0000000000e+00	1.5983787570e-12	4	1.0000000000e+00	4.1796580540e-12	4	1.0000000000e+00	2.5919518650e-08	2	false	DILUPBiCGStab	1.0000000000e+00	5.1387594100e-10	2	true	DILUPBiCGStab	4.3052629640e-04	8.5628474130e-08	1	true	DICPCG	6.1543543770e-01	8.9850166650e-04	3	true
2.6401747e-05     	DILUPBiCGStab	7.1757120910e-02	1.2241228120e-05	1	true	smoothSolver	3.0870723540e-01	1.6203325070e-08	2	1.6897404850e-01	1.1616535940e-08	2	1.7513190840e-01	5.8837419920e-09	2	false	DILUPBiCGStab	5.6000929240e-01	8.6074708580e-08	1	true	DILUPBiCGStab	2.1206765160e-04	4.2958269840e-08	1	true	DICPCG	4.7675666790e-01	1.4407233380e-03	3	true
4.3683268e-05     	DILUPBiCGStab	4.3702296280e-02	8.4037851010e-06	1	true	smoothSolver	2.3958893210e-01	1.2485827950e-08	2	1.2065473840e-01	7.9409983950e-09	2	1.3131943170e-01	4.5722715020e-09	2	false	DILUPBiCGStab	3.3564043990e-01	7.4080652690e-08	1	true	DILUPBiCGStab	2.3308224820e-04	5.6906385440e-08	1	true	DICPCG	3.9844782790e-01	2.5349082830e-03	3	true
6.4421093e-05     	DILUPBiCGStab	3.3083403640e-02	8.0035848970e-06	1	true	smoothSolver	1.9944537540e-01	9.8412626140e-09	2	9.8235884500e-02	6.6161703440e-09	2	1.1003563840e-01	3.7073938460e-09	2	false	DILUPBiCGStab	2.4837802350e-01	7.8411889580e-08	1	true	DILUPBiCGStab	2.5241710990e-04	7.5252970160e-08	1	true	DICPCG	3.5039491640e-01	1.1032331940e-03	4	true
8.9305451e-05     	DILUPBiCGStab	2.7578851120e-02	9.0467187950e-06	1	true	smoothSolver	1.7054962530e-01	9.6380879880e-09	2	8.4691881910e-02	6.6186256070e-09	2	9.7214979680e-02	3.7933295450e-09	2	false	DILUPBiCGStab	2.0626369590e-01	9.2950523200e-08	1	true	DILUPBiCGStab	2.7856915760e-04	9.8918243930e-08	1	true	DICPCG	3.5424901270e-01	2.2465899220e-03	4	true
0.00011916519     	DILUPBiCGStab	2.4251662940e-02	1.0866131100e-05	1	true	smoothSolver	1.4647806870e-01	1.1019667830e-08	2	7.5307715930e-02	7.5516205960e-09	2	8.8555503030e-02	4.5952958670e-09	2	false	DILUPBiCGStab	1.8299831940e-01	7.3632157040e-10	2	true	DILUPBiCGStab	3.1158826950e-04	1.7445429130e-10	1	true	DICPCG	3.9767563250e-01	2.1774101890e-03	5	true
0.00015499046     	DILUPBiCGStab	2.2041322190e-02	1.4105297340e-05	1	true	smoothSolver	1.2343455600e-01	1.3652530020e-08	2	6.8169255400e-02	9.3499226580e-09	2	8.2177534150e-02	6.0657372030e-09	2	false	DILUPBiCGStab	1.6725188880e-01	1.1327565690e-09	2	true	DILUPBiCGStab	3.5204958430e-04	2.6096860180e-10	1	true	DICPCG	4.4350092190e-01	2.6653793170e-03	6	true
0.00019797152     	DILUPBiCGStab	2.0465002540e-02	1.8443935510e-05	1	true	smoothSolver	9.9386871820e-02	1.8306393780e-08	2	6.2609406920e-02	1.2514350290e-08	2	7.7313432040e-02	8.7844624890e-09	2	false	DILUPBiCGStab	1.5467255830e-01	1.7795558040e-09	2	true	DILUPBiCGStab	4.0024009560e-04	3.9507393260e-10	1	true	DICPCG	4.5233809130e-01	3.4403324570e-03	7	true
0.00024954879     	DILUPBiCGStab	1.9291716620e-02	2.4728336780e-05	1	true	smoothSolver	7.8502001430e-02	2.7648522410e-08	2	5.8061429540e-02	1.8343790480e-08	2	7.3386241010e-02	1.4123111570e-08	2	false	DILUPBiCGStab	1.4335490800e-01	2.8426150540e-09	2	true	DILUPBiCGStab	4.5372549620e-04	6.0497336390e-10	1	true	DICPCG	4.1882741550e-01	1.9386701440e-03	9	true
0.00031142873     	DILUPBiCGStab	1.8363739390e-02	3.4122055250e-05	1	true	smoothSolver	8.3269156790e-02	5.4368406070e-08	2	5.5268994760e-02	2.8844995560e-08	2	7.0887472940e-02	2.4407898880e-08	2	false	DILUPBiCGStab	1.3285889130e-01	4.5902256400e-09	2	true	DILUPBiCGStab	5.1465459840e-04	9.3786683210e-10	1	true	DICPCG	3.5733073100e-01	2.4682490290e-03	10	true
0.000385657       	DILUPBiCGStab	1.7592720240e-02	4.7336579940e-05	1	true	smoothSolver	1.2713538920e-01	2.7412334220e-11	4	5.3512014230e-02	5.1344158480e-08	2	6.9190466560e-02	4.5367055650e-08	2	false	DILUPBiCGStab	1.2373285780e-01	7.4841601550e-09	2	true	DILUPBiCGStab	5.8654564320e-04	1.4754722030e-09	1	true	DICPCG	2.8897338770e-01	1.8057902710e-03	12	true
0.00047475749     	DILUPBiCGStab	1.6884667800e-02	6.5061355820e-05	1	true	smoothSolver	2.1486895920e-01	8.7852037770e-11	4	5.2692933100e-02	9.9414506820e-08	2	6.8306635290e-02	8.7313372950e-08	2	false	DILUPBiCGStab	1.1997787580e-01	1.2368041120e-08	2	true	DILUPBiCGStab	6.6962227890e-04	2.3719714770e-09	1	true	DICPCG	2.8337470620e-01	2.5659224940e-03	14	true
0.00058165893     	DILUPBiCGStab	1.6227704640e-02	9.1376270460e-05	1	true	smoothSolver	2.8988706350e-01	2.5105700540e-10	4	5.0055506970e-02	4.5924323250e-11	4	6.5923479170e-02	4.1341589640e-11	4	false	DILUPBiCGStab	1.2176074490e-01	2.0683152520e-08	2	true	DILUPBiCGStab	7.7350041290e-04	3.8932421270e-09	1	true	DICPCG	2.9945359780e-01	2.7161244300e-03	18	true
0.00070994066     	DILUPBiCGStab	1.5611900330e-02	1.2698926640e-04	1	true	smoothSolver	2.6179989850e-01	5.8355953430e-10	4	4.4274358340e-02	1.1881060390e-10	4	6.1423526490e-02	1.1193195420e-10	4	false	DILUPBiCGStab	1.2154442860e-01	3.4241991940e-08	2	true	DILUPBiCGStab	8.6615051940e-04	6.4889030740e-09	1	true	DICPCG	4.0931090680e-01	3.7148328970e-03	21	true
0.00086387873     	DILUPBiCGStab	1.5016064930e-02	1.6971593730e-04	1	true	smoothSolver	1.8806714770e-01	1.1605130120e-09	4	3.5591589930e-02	2.8457719290e-10	4	5.5516350740e-02	2.7643775700e-10	4	false	DILUPBiCGStab	1.1884218650e-01	5.6248797760e-08	2	true	DILUPBiCGStab	9.5028974710e-04	1.0925460370e-08	1	true	DICPCG	4.7342647650e-01	4.5955858470e-03	24	true
0.0010484898      	DILUPBiCGStab	1.4411569260e-02	2.1557020680e-04	1	true	smoothSolver	1.2251842320e-01	2.5522258700e-09	4	2.4638961380e-02	6.2990758490e-10	4	4.9487085600e-02	6.4384132540e-10	4	false	DILUPBiCGStab	1.1390441610e-01	9.1915554520e-08	2	true	DILUPBiCGStab	1.0499050980e-03	1.8372622280e-08	1	true	DICPCG	4.7085994450e-01	4.4381296710e-03	28	true
0.0012698578      	DILUPBiCGStab	1.3818515240e-02	2.6253800680e-04	1	true	smoothSolver	6.8698007050e-02	5.6447896680e-09	4	1.3311774420e-02	1.5053510910e-09	4	4.5392783840e-02	1.4505616830e-09	4	false	DILUPBiCGStab	1.0852501740e-01	5.5166185720e-09	2	true	DILUPBiCGStab	1.1597855490e-03	3.0174970550e-08	1	true	DICPCG	4.2981730040e-01	4.1695701970e-03	34	true
0.0015352614      	DILUPBiCGStab	1.3268870880e-02	3.1009168030e-04	1	true	smoothSolver	7.9263070810e-02	1.5287064850e-08	4	1.7689043180e-02	4.1233823500e-09	4	5.0801010310e-02	3.6298945390e-09	4	false	DILUPBiCGStab	1.0344037790e-01	1.0336437410e-08	2	true	DILUPBiCGStab	1.2841221040e-03	6.2996913740e-08	1	true	DICPCG	3.4782517250e-01	3.0371309150e-03	43	true
0.0018539175      	DILUPBiCGStab	1.2836091960e-02	3.7079523890e-04	1	true	smoothSolver	1.7371356890e-01	5.1750859820e-08	4	3.9111498020e-02	1.3434667980e-08	4	6.2790393940e-02	1.0043587760e-08	4	false	DILUPBiCGStab	9.9781024990e-02	2.1121891370e-08	2	true	DILUPBiCGStab	1.4328498830e-03	3.4558874710e-09	2	true	DICPCG	2.6618589760e-01	2.4265028600e-03	49	true
0.0022358089      	DILUPBiCGStab	1.2517607610e-02	4.5154591260e-04	1	true	smoothSolver	2.8187376160e-01	1.2828780250e-09	6	6.1260671170e-02	4.9801447590e-08	4	7.0922744100e-02	2.7787998150e-08	4	false	DILUPBiCGStab	9.7436665060e-02	3.7597815530e-08	2	true	DILUPBiCGStab	1.5879370510e-03	1.0483556580e-08	2	true	DICPCG	3.0021292230e-01	2.9708741710e-03	50	true
0.0026947957      	DILUPBiCGStab	1.2387710410e-02	5.8541728240e-04	1	true	smoothSolver	2.7968988380e-01	4.6517608550e-09	6	7.6916024580e-02	1.4335083770e-09	6	7.5060693590e-02	7.0978525780e-08	4	false	DILUPBiCGStab	9.5925346430e-02	6.2565021070e-08	2	true	DILUPBiCGStab	1.7532569040e-03	4.4080976940e-08	2	true	DICPCG	3.5866285750e-01	3.2223168060e-03	55	true
0.0032265181      	DILUPBiCGStab	1.1950837400e-02	6.9854665520e-04	1	true	smoothSolver	1.9045251310e-01	1.0303023950e-08	6	7.5434607860e-02	4.4893531120e-09	6	7.4545742460e-02	1.6374113030e-09	6	false	DILUPBiCGStab	9.0863781760e-02	8.7693099630e-09	3	true	DILUPBiCGStab	1.8734878530e-03	6.1447364590e-09	2	true	DICPCG	3.7234434450e-01	3.6497912430e-03	62	true
0.0038238853      	DILUPBiCGStab	1.1289216480e-02	7.6761001890e-04	1	true	smoothSolver	1.0784170080e-01	1.5915882980e-08	6	5.8273820090e-02	9.7271649690e-09	6	7.1918739180e-02	3.1495720020e-09	6	false	DILUPBiCGStab	8.3981563410e-02	1.3763045000e-08	3	true	DILUPBiCGStab	1.9481500200e-03	4.3855927880e-08	2	true	DICPCG	3.4650024740e-01	3.2090892890e-03	85	true
0.0044287665      	DILUPBiCGStab	9.7158692890e-03	6.3174044830e-04	1	true	smoothSolver	7.1301646040e-02	1.2332437640e-08	6	3.7281021220e-02	9.2434576880e-09	6	6.4897540910e-02	3.2304469540e-09	6	false	DILUPBiCGStab	7.1747425650e-02	1.5215226130e-08	3	true	DILUPBiCGStab	1.8549045780e-03	1.8802235440e-08	2	true	DICPCG	2.7886321870e-01	2.7584785780e-03	89	true
0.0050044968      	DILUPBiCGStab	7.9792463480e-03	4.3772615970e-04	1	true	smoothSolver	7.1132359810e-02	5.9610148780e-09	6	2.9705685540e-02	5.0587636050e-09	6	5.6915498270e-02	2.2672894840e-09	6	false	DILUPBiCGStab	5.9754386130e-02	1.2993398630e-08	3	true	DILUPBiCGStab	1.6831133840e-03	9.9802332160e-09	2	true	DICPCG	2.1019523630e-01	2.0403884490e-03	86	true
0.0055666004      	DILUPBiCGStab	6.8232641890e-03	3.2450365750e-04	1	true	smoothSolver	7.0950153000e-02	2.5851422760e-09	6	2.6473857280e-02	2.4631611530e-09	6	5.1854643870e-02	1.6812064550e-09	6	false	DILUPBiCGStab	5.2351038420e-02	1.2638417630e-08	3	true	DILUPBiCGStab	1.5713079510e-03	9.9434809610e-09	2	true	DICPCG	1.7738341940e-01	1.6373574080e-03	83	true
0.0061320699      	DILUPBiCGStab	6.0939589670e-03	2.6168371040e-04	1	true	smoothSolver	6.6575913500e-02	2.1383829150e-09	6	2.2807556320e-02	1.0062391050e-09	6	4.9506419890e-02	1.5204937540e-09	6	false	DILUPBiCGStab	4.7966625200e-02	1.6467273540e-08	3	true	DILUPBiCGStab	1.5073723330e-03	1.1237659920e-08	2	true	DICPCG	1.6592577460e-01	1.6037162280e-03	81	true
0.0067115015      	DILUPBiCGStab	5.6186280410e-03	2.2730160320e-04	1	true	smoothSolver	6.0882796620e-02	4.0902168440e-09	6	1.9622991380e-02	1.4993644930e-09	6	4.9230314220e-02	2.3513674590e-09	6	false	DILUPBiCGStab	4.5243615280e-02	2.4189380110e-08	3	true	DILUPBiCGStab	1.4735867270e-03	1.2965225250e-08	2	true	DICPCG	1.5607444030e-01	1.5388396330e-03	81	true
0.0073133628      	DILUPBiCGStab	5.3059760900e-03	2.0956476250e-04	1	true	smoothSolver	5.6367827030e-02	6.4406758980e-09	6	1.6868590290e-02	3.1315229420e-09	6	4.9725670390e-02	3.8986001700e-09	6	false	DILUPBiCGStab	4.3584522980e-02	4.9179232850e-08	3	true	DILUPBiCGStab	1.4573328000e-03	1.2427564790e-08	2	true	DICPCG	1.4561156680e-01	1.3683254630e-03	81	true
0.0079438842      	DILUPBiCGStab	5.0925021370e-03	1.9864630990e-04	1	true	smoothSolver	5.2747510690e-02	8.9444518740e-09	6	1.4809371620e-02	4.9521897750e-09	6	4.7871450540e-02	6.4005901300e-09	6	false	DILUPBiCGStab	4.2591040880e-02	5.8199395210e-08	3	true	DILUPBiCGStab	1.4514698050e-03	1.1663269180e-08	2	true	DICPCG	1.3304912060e-01	1.3288133630e-03	84	true
0.0086061584      	DILUPBiCGStab	4.9316633050e-03	1.9149477740e-04	1	true	smoothSolver	5.3049667620e-02	1.0763803980e-08	6	1.5742555570e-02	6.4537168770e-09	6	4.6142353700e-02	1.0521557540e-08	6	false	DILUPBiCGStab	4.1915760210e-02	4.7727796230e-08	3	true	DILUPBiCGStab	1.4482719030e-03	1.0697518110e-08	2	true	DICPCG	1.1971588920e-01	1.1343311400e-03	92	true
0.009298536       	DILUPBiCGStab	4.7834332030e-03	1.8493042760e-04	1	true	smoothSolver	5.5860600490e-02	1.1546452180e-08	6	1.7803342190e-02	6.7468961900e-09	6	4.4468002700e-02	1.6575062750e-08	6	false	DILUPBiCGStab	4.1315252210e-02	3.9217057660e-08	3	true	DILUPBiCGStab	1.4444897490e-03	7.6681870740e-09	2	true	DICPCG	1.0687283000e-01	1.0682061000e-03	98	true
0.010018389       	DILUPBiCGStab	4.6393488310e-03	1.7808222060e-04	1	true	smoothSolver	5.6504078580e-02	1.1922238430e-08	6	1.9111286310e-02	5.3695336610e-09	6	4.2845119770e-02	2.4727447130e-08	6	false	DILUPBiCGStab	4.0755663830e-02	3.3246616830e-08	3	true	DILUPBiCGStab	1.4388558980e-03	5.2334899290e-09	2	true	DICPCG	9.5370144330e-02	9.2884607420e-04	103	true
0.010762039       	DILUPBiCGStab	4.4940724270e-03	1.7120733990e-04	1	true	smoothSolver	5.4286364110e-02	1.2647157780e-08	6	1.9156785240e-02	3.0912066260e-09	6	4.1196810840e-02	3.4682088150e-08	6	false	DILUPBiCGStab	4.0269635200e-02	2.1621959920e-08	3	true	DILUPBiCGStab	1.4274018110e-03	4.9341859620e-09	2	true	DICPCG	8.5214543180e-02	7.9888586510e-04	110	true
0.011524756       	DILUPBiCGStab	4.3451782830e-03	1.6422696290e-04	1	true	smoothSolver	5.0652069390e-02	1.5478950200e-08	6	1.8835567440e-02	3.6082979750e-09	6	3.9463269310e-02	4.5554548490e-08	6	false	DILUPBiCGStab	3.9840049480e-02	4.4688571300e-08	3	true	DILUPBiCGStab	1.4061243510e-03	7.1113569900e-08	2	true	DICPCG	7.6069282340e-02	7.5719152060e-04	112	true
0.012300855       	DILUPBiCGStab	4.1882731880e-03	1.5611654690e-04	1	true	smoothSolver	4.6439409930e-02	1.9922629800e-08	6	1.7773648230e-02	5.3988044820e-09	6	3.7614067960e-02	5.5822989800e-08	6	false	DILUPBiCGStab	3.9342195210e-02	8.5121057290e-08	3	true	DILUPBiCGStab	1.3757135300e-03	7.9944379780e-08	2	true	DICPCG	6.7909584250e-02	6.1925917000e-04	115	true
0.013090937       	DILUPBiCGStab	4.0555231100e-03	1.4992180730e-04	1	true	smoothSolver	4.2823052640e-02	2.3889073690e-08	6	1.5729000440e-02	6.1462480340e-09	6	3.5889913840e-02	6.6527304150e-08	6	false	DILUPBiCGStab	3.9063043270e-02	2.8284013900e-08	3	true	DILUPBiCGStab	1.3491398450e-03	8.6063297530e-08	2	true	DICPCG	6.1180607030e-02	5.8322502310e-04	116	true
0.013903171       	DILUPBiCGStab	3.9796490780e-03	1.4925401160e-04	1	true	smoothSolver	4.1658871860e-02	2.8395650340e-08	6	1.3214684260e-02	5.9583294150e-09	6	3.4458896380e-02	8.0639338160e-08	6	false	DILUPBiCGStab	3.9243746080e-02	1.8916734590e-08	3	true	DILUPBiCGStab	1.3367065860e-03	9.6344213410e-08	2	true	DICPCG	5.5992332470e-02	5.5718497470e-04	118	true
0.014731026       	DILUPBiCGStab	3.8899450050e-03	1.4642959320e-04	1	true	smoothSolver	4.2335799120e-02	3.1876118780e-08	6	1.0585737510e-02	5.4580938630e-09	6	3.2769081460e-02	9.1163379590e-08	6	false	DILUPBiCGStab	3.9246022680e-02	1.8828654810e-08	3	true	DILUPBiCGStab	1.3170762640e-03	6.6791800080e-09	2	true	DICPCG	5.1592756310e-02	4.8731699830e-04	119	true
0.015575273       	DILUPBiCGStab	3.8213534260e-03	1.4417626550e-04	1	true	smoothSolver	4.3667842500e-02	3.6707419570e-08	6	9.1999025760e-03	7.0900994860e-09	6	3.1274958190e-02	2.5920128850e-09	8	false	DILUPBiCGStab	3.9354276770e-02	2.1105256250e-08	3	true	DILUPBiCGStab	1.2995188820e-03	7.5465656650e-09	2	true	DICPCG	4.7789042860e-02	4.7339718930e-04	120	true
0.01643675        	DILUPBiCGStab	3.7734406940e-03	1.4278212490e-04	1	true	smoothSolver	4.4328848400e-02	4.2790686480e-08	6	1.0509604400e-02	1.0524607070e-08	6	3.0335816920e-02	2.8482372570e-09	8	false	DILUPBiCGStab	3.9591819220e-02	2.4730494420e-08	3	true	DILUPBiCGStab	1.2851848380e-03	8.3035564750e-09	2	true	DICPCG	4.4331035810e-02	4.3248236320e-04	122	true
0.017316363       	DILUPBiCGStab	3.7445381490e-03	1.4287706030e-04	1	true	smoothSolver	4.3678846510e-02	4.8991966520e-08	6	1.2709935210e-02	1.3366356190e-08	6	2.9999464820e-02	3.0549328400e-09	8	false	DILUPBiCGStab	3.9959933770e-02	2.8960414370e-08	3	true	DILUPBiCGStab	1.2712302660e-03	8.8659092470e-09	2	true	DICPCG	4.1036339790e-02	4.0813684950e-04	124	true
0.018205434       	DILUPBiCGStab	3.6959692690e-03	1.4023277460e-04	1	true	smoothSolver	4.1461954620e-02	5.2490505530e-08	6	1.4258002130e-02	1.3745657440e-08	6	2.9748675170e-02	3.0130746410e-09	8	false	DILUPBiCGStab	3.9992760770e-02	3.3458578600e-08	3	true	DILUPBiCGStab	1.2481295520e-03	9.1143928970e-09	2	true	DICPCG	3.8156303830e-02	3.6165515100e-04	127	true
0.019094506       	DILUPBiCGStab	3.6244705720e-03	1.3475747830e-04	1	true	smoothSolver	3.8327686210e-02	5.3049522140e-08	6	1.4680578050e-02	1.1770531940e-08	6	2.9496639330e-02	2.7251046020e-09	8	false	DILUPBiCGStab	3.9628641990e-02	3.6918021360e-08	3	true	DILUPBiCGStab	1.2143744600e-03	8.8389498120e-09	2	true	DICPCG	3.6098407030e-02	3.5787714100e-04	125	true
0.019973913       	DILUPBiCGStab	3.5285437310e-03	1.2722392400e-04	1	true	smoothSolver	3.4927699480e-02	5.1145948370e-08	6	1.4029340220e-02	8.9962418710e-09	6	2.9051548410e-02	8.4535985060e-08	6	false	DILUPBiCGStab	3.8898513430e-02	4.0303063610e-08	3	true	DILUPBiCGStab	1.1700389550e-03	8.0284488510e-09	2	true	DICPCG	3.4527369370e-02	3.4039420480e-04	123	true
0.020834409       	DILUPBiCGStab	3.4080852150e-03	1.1777153520e-04	1	true	smoothSolver	3.1753425510e-02	4.6519551570e-08	6	1.2571004370e-02	7.4015471900e-09	6	2.8380957390e-02	6.7001587860e-08	6	false	DILUPBiCGStab	3.7920170180e-02	4.2159331590e-08	3	true	DILUPBiCGStab	1.1179015210e-03	7.2124896900e-09	2	true	DICPCG	3.3363199040e-02	3.3044753540e-04	119	true
0.021676596       	DILUPBiCGStab	3.2968125980e-03	1.0935816730e-04	1	true	smoothSolver	2.9293616220e-02	4.2040388540e-08	6	1.0752895800e-02	7.6240201960e-09	6	2.7702269850e-02	5.2782970290e-08	6	false	DILUPBiCGStab	3.6944104000e-02	4.3372193320e-08	3	true	DILUPBiCGStab	1.0701305500e-03	6.7857781630e-09	2	true	DICPCG	3.2604156430e-02	3.2317246380e-04	115	true
0.022501053       	DILUPBiCGStab	3.1918747310e-03	1.0175044980e-04	1	true	smoothSolver	2.7563089890e-02	3.7693467200e-08	6	8.6186640140e-03	7.6434550830e-09	6	2.6999988220e-02	4.0676727480e-08	6	false	DILUPBiCGStab	3.5925923870e-02	4.1739798000e-08	3	true	DILUPBiCGStab	1.0273327170e-03	6.7910272000e-09	2	true	DICPCG	3.2118145430e-02	3.1623992290e-04	110	true
0.023300011       	DILUPBiCGStab	3.0612997220e-03	9.2308262540e-05	1	true	smoothSolver	2.6182212870e-02	3.2078904340e-08	6	6.4794399940e-03	6.8687709180e-09	6	2.6022975450e-02	2.9473110750e-08	6	false	DILUPBiCGStab	3.4506573550e-02	3.6167760510e-08	3	true	DILUPBiCGStab	9.7894009070e-04	6.4876205490e-09	2	true	DICPCG	3.1796594740e-02	3.1789147800e-04	105	true
0.024074758       	DILUPBiCGStab	2.9364050530e-03	8.3912558320e-05	1	true	smoothSolver	2.4987566120e-02	2.7250762170e-08	6	5.5821270250e-03	5.9481117090e-09	6	2.5138628770e-02	2.0350137720e-08	6	false	DILUPBiCGStab	3.3075011630e-02	3.1737080910e-08	3	true	DILUPBiCGStab	9.3430677620e-04	9.8155840950e-08	2	true	DICPCG	3.1533444850e-02	3.1190199800e-04	102	true
0.024826493       	DILUPBiCGStab	2.8158779170e-03	7.6189389440e-05	1	true	smoothSolver	2.3850039040e-02	2.3133710330e-08	6	6.2099729390e-03	5.1153778270e-09	6	2.4736307570e-02	1.3395080620e-08	6	false	DILUPBiCGStab	3.1653299800e-02	2.8637707470e-08	3	true	DILUPBiCGStab	8.9307950540e-04	9.3716535960e-08	2	true	DICPCG	3.1235161470e-02	3.0073263780e-04	100	true
0.025549315       	DILUPBiCGStab	2.6747803360e-03	6.7297815900e-05	1	true	smoothSolver	2.2517720760e-02	1.8741140160e-08	6	7.2083003490e-03	4.1912647800e-09	6	2.4399723670e-02	8.1207283800e-09	6	false	DILUPBiCGStab	3.0081095280e-02	2.4863345620e-08	3	true	DILUPBiCGStab	8.4931811030e-04	8.7197926610e-08	2	true	DICPCG	3.0924337450e-02	3.0149404300e-04	96	true
0.02625168        	DILUPBiCGStab	2.5637339800e-03	6.0908803940e-05	1	true	smoothSolver	2.1363796100e-02	1.5976502750e-08	6	7.9490239290e-03	3.6279276960e-09	6	2.4316392850e-02	5.1265039380e-09	6	false	DILUPBiCGStab	2.8819553500e-02	2.2141041500e-08	3	true	DILUPBiCGStab	8.1584869640e-04	8.3962521560e-08	2	true	DICPCG	3.0603413150e-02	2.9975541220e-04	92	true
0.026934535       	DILUPBiCGStab	2.4566197100e-03	5.5109124730e-05	1	true	smoothSolver	2.0221046950e-02	1.3671308270e-08	6	8.3127606360e-03	3.1610261570e-09	6	2.4268589010e-02	3.4662344390e-09	6	false	DILUPBiCGStab	2.7637241150e-02	1.8984072650e-08	3	true	DILUPBiCGStab	7.8510167140e-04	7.9632205340e-08	2	true	DICPCG	3.0266971270e-02	3.0246562190e-04	89	true
0.027598767       	DILUPBiCGStab	2.3539372830e-03	4.9842436680e-05	1	true	smoothSolver	1.9129322370e-02	1.1751617310e-08	6	8.3371580860e-03	2.7874751480e-09	6	2.4246059840e-02	2.6508498660e-09	6	false	DILUPBiCGStab	2.6531653010e-02	1.6175530200e-08	3	true	DILUPBiCGStab	7.5714843500e-04	7.3368624210e-08	2	true	DICPCG	2.9965002490e-02	2.8789288890e-04	88	true
0.028245206       	DILUPBiCGStab	2.2562025790e-03	4.5055635640e-05	1	true	smoothSolver	1.8094067860e-02	1.0169357520e-08	6	8.0798434520e-03	2.4872786190e-09	6	2.4195123620e-02	2.2795627050e-09	6	false	DILUPBiCGStab	2.5501586970e-02	1.4014433490e-08	3	true	DILUPBiCGStab	7.3192342760e-04	6.6487847840e-08	2	true	DICPCG	2.9696122260e-02	2.8181804370e-04	86	true
0.028874634       	DILUPBiCGStab	2.1639893280e-03	4.0749829800e-05	1	true	smoothSolver	1.7161767310e-02	8.8797132130e-09	6	7.6045194950e-03	2.2464340570e-09	6	2.4097299750e-02	2.1539862600e-09	6	false	DILUPBiCGStab	2.4502493530e-02	1.2423484920e-08	3	true	DILUPBiCGStab	7.0894489200e-04	6.5341904270e-08	2	true	DICPCG	2.9462516740e-02	2.8336466090e-04	84	true
0.029493116       	DILUPBiCGStab	2.0948914800e-03	3.7786398000e-05	1	true	smoothSolver	1.6472391500e-02	8.1787381010e-09	6	7.0319580410e-03	2.1465131550e-09	6	2.4133862020e-02	2.2165272440e-09	6	false	DILUPBiCGStab	2.3676783590e-02	1.1556667210e-08	3	true	DILUPBiCGStab	6.9328539560e-04	5.7317597850e-09	2	true	DICPCG	2.9234541460e-02	2.5858879940e-04	84	true
0.030095739       	DILUPBiCGStab	2.0137915350e-03	3.4369511850e-05	1	true	smoothSolver	1.5833066000e-02	7.2591672230e-09	6	6.3149628110e-03	1.9736861400e-09	6	2.3966464250e-02	2.2272015050e-09	6	false	DILUPBiCGStab	2.2709843940e-02	1.0653720610e-08	3	true	DILUPBiCGStab	6.7425939310e-04	3.0366998230e-08	2	true	DICPCG	2.9023046980e-02	2.7847303550e-04	82	true
0.030683169       	DILUPBiCGStab	1.9390165850e-03	3.1381559470e-05	1	true	smoothSolver	1.5358608790e-02	6.4911191880e-09	6	5.5724593950e-03	1.8260909300e-09	6	2.3798727190e-02	2.1251283390e-09	6	false	DILUPBiCGStab	2.1802964940e-02	9.6483929670e-09	3	true	DILUPBiCGStab	6.5690054070e-04	1.2027594320e-08	2	true	DICPCG	2.8840124970e-02	2.8446865130e-04	80	true
0.031256036       	DILUPBiCGStab	1.8704502840e-03	2.8787406230e-05	1	true	smoothSolver	1.4969045690e-02	5.8426802740e-09	6	4.8751430730e-03	1.6942372250e-09	6	2.3639967210e-02	1.9707390730e-09	6	false	DILUPBiCGStab	2.0929376890e-02	8.1422791960e-09	3	true	DILUPBiCGStab	6.4137447050e-04	6.9391108440e-09	2	true	DICPCG	2.8674463550e-02	2.7072957440e-04	79	true
0.03181493        	DILUPBiCGStab	1.8077755550e-03	2.6520097130e-05	1	true	smoothSolver	1.4608229480e-02	5.2791741780e-09	6	4.3548658260e-03	1.5740667380e-09	6	2.3525796020e-02	1.8403506070e-09	6	false	DILUPBiCGStab	2.0095276250e-02	6.7337646550e-09	3	true	DILUPBiCGStab	6.2683431120e-04	5.9434991600e-09	2	true	DICPCG	2.8528149290e-02	2.6299196500e-04	78	true
0.032364809       	DILUPBiCGStab	1.7639740410e-03	2.5059319170e-05	1	true	smoothSolver	1.4343843170e-02	4.9765363010e-09	6	4.1945799200e-03	1.5224265900e-09	6	2.3687451030e-02	1.7698454050e-09	6	false	DILUPBiCGStab	1.9387396430e-02	6.8263206640e-09	3	true	DILUPBiCGStab	6.1767105110e-04	5.7807466460e-09	2	true	DICPCG	2.8425465740e-02	2.5590647550e-04	77	true
0.032905891       	DILUPBiCGStab	1.7240575560e-03	2.3793900020e-05	1	true	smoothSolver	1.4071643240e-02	4.6764963640e-09	6	4.1984847540e-03	1.4634295060e-09	6	2.3971851820e-02	1.7049645790e-09	6	false	DILUPBiCGStab	1.8679219580e-02	7.2855494070e-09	3	true	DILUPBiCGStab	6.0898480740e-04	5.8132993480e-09	2	true	DICPCG	2.8286042210e-02	2.5578194080e-04	76	true
0.033434191       	DILUPBiCGStab	1.6749270900e-03	2.2215444210e-05	1	true	smoothSolver	1.3693145430e-02	4.1966288660e-09	6	4.1708419410e-03	1.3401877940e-09	6	2.4139200690e-02	1.5946926970e-09	6	false	DILUPBiCGStab	1.7875352480e-02	7.4085061620e-09	3	true	DILUPBiCGStab	5.9670663330e-04	5.6450540290e-09	2	true	DICPCG	2.8087894510e-02	2.6157738250e-04	74	true
0.033954236       	DILUPBiCGStab	1.6417992400e-03	2.1257542910e-05	1	true	smoothSolver	1.3382659870e-02	3.9075028720e-09	6	4.1551774560e-03	1.2722803730e-09	6	2.4493203420e-02	1.5398161460e-09	6	false	DILUPBiCGStab	1.7232323990e-02	7.3899939290e-09	3	true	DILUPBiCGStab	5.8881723910e-04	5.6642793340e-09	2	true	DICPCG	2.7764442360e-02	2.6528836930e-04	73	true
0.034466219       	DILUPBiCGStab	1.6111340880e-03	2.0393831960e-05	1	true	smoothSolver	1.3060476170e-02	3.6186798860e-09	6	4.1312729290e-03	1.1997523380e-09	6	2.4865756450e-02	1.4700091040e-09	6	false	DILUPBiCGStab	1.6628065770e-02	7.1942932480e-09	3	true	DILUPBiCGStab	5.8120394670e-04	5.6703970600e-09	2	true	DICPCG	2.7336541320e-02	2.6942630920e-04	72	true
0.034970325       	DILUPBiCGStab	1.5824417400e-03	1.9608810720e-05	1	true	smoothSolver	1.2730993580e-02	3.3351610130e-09	6	4.1347093440e-03	1.1255297300e-09	6	2.5289379330e-02	1.3891422770e-09	6	false	DILUPBiCGStab	1.6051679980e-02	6.6709218820e-09	3	true	DILUPBiCGStab	5.7348390790e-04	5.7690899630e-09	2	true	DICPCG	2.6839408550e-02	2.4605643860e-04	72	true
0.035470553       	DILUPBiCGStab	1.5666834480e-03	1.9274143440e-05	1	true	smoothSolver	1.2481805650e-02	3.1855352760e-09	6	4.1729390610e-03	1.0959250900e-09	6	2.5946782690e-02	1.3557960340e-09	6	false	DILUPBiCGStab	1.5620231490e-02	6.1957472210e-09	3	true	DILUPBiCGStab	5.6967628580e-04	6.1715614230e-09	2	true	DICPCG	2.6262024730e-02	2.3538927500e-04	72	true
0.035963145       	DILUPBiCGStab	1.5402836290e-03	1.8571241450e-05	1	true	smoothSolver	1.2161595060e-02	2.9083861340e-09	6	4.1488518850e-03	1.0198188750e-09	6	2.6469805610e-02	1.2598626640e-09	6	false	DILUPBiCGStab	1.5113544180e-02	5.3106037890e-09	3	true	DILUPBiCGStab	5.6194088590e-04	6.5208719080e-09	2	true	DICPCG	2.5617686500e-02	2.4448889290e-04	71	true
0.036451976       	DILUPBiCGStab	1.5256831590e-03	1.8270275500e-05	1	true	smoothSolver	1.1919173040e-02	2.7571244260e-09	6	4.1070786420e-03	9.8751713360e-10	6	2.7204580770e-02	1.2110005050e-09	6	false	DILUPBiCGStab	1.4721380420e-02	4.5494413150e-09	3	true	DILUPBiCGStab	5.5801844900e-04	7.5548308510e-09	2	true	DICPCG	2.4890006710e-02	2.3518644580e-04	71	true
0.036937075       	DILUPBiCGStab	1.5111216770e-03	1.7962967040e-05	1	true	smoothSolver	1.1690583660e-02	2.6064874770e-09	6	4.0224190790e-03	9.5518869400e-10	6	2.7972082030e-02	9.9272873420e-08	4	false	DILUPBiCGStab	1.4356725120e-02	4.0103447140e-09	3	true	DILUPBiCGStab	5.5376262430e-04	9.3275895670e-09	2	true	DICPCG	2.4082304730e-02	2.3781943850e-04	70	true
0.037418471       	DILUPBiCGStab	1.4963491360e-03	1.7644595100e-05	1	true	smoothSolver	1.1474481720e-02	2.4615641190e-09	6	3.9028889350e-03	9.7390409060e-08	4	2.8771856370e-02	9.5449657860e-08	4	false	DILUPBiCGStab	1.4013530650e-02	3.8787928010e-09	3	true	DILUPBiCGStab	5.4951394010e-04	1.1626050510e-08	2	true	DICPCG	2.3190828900e-02	2.2458858280e-04	70	true
0.037896193       	DILUPBiCGStab	1.4811904470e-03	1.7313474060e-05	1	true	smoothSolver	1.1282925890e-02	2.3224944590e-09	6	3.7633764730e-03	9.4785565010e-08	4	2.9609088700e-02	9.1350292840e-08	4	false	DILUPBiCGStab	1.3685847090e-02	3.9227120790e-09	3	true	DILUPBiCGStab	5.4493499480e-04	1.5968949860e-08	2	true	DICPCG	2.2220713560e-02	2.1097239600e-04	70	true
0.038373915       	DILUPBiCGStab	1.4762979390e-03	1.7317223050e-05	1	true	smoothSolver	1.1198577520e-02	2.2867399760e-09	6	3.6676505710e-03	9.5302283940e-08	4	3.0729936050e-02	9.0102687810e-08	4	false	DILUPBiCGStab	1.3449001760e-02	4.1621331840e-09	3	true	DILUPBiCGStab	5.4396637790e-04	2.7876090160e-08	2	true	DICPCG	2.1155698350e-02	2.0502163340e-04	70	true
0.038847961       	DILUPBiCGStab	1.4598393710e-03	1.6940261200e-05	1	true	smoothSolver	1.1066738220e-02	2.1635449010e-09	6	3.5872128760e-03	9.2905666500e-08	4	3.1764153600e-02	8.5880432850e-08	4	false	DILUPBiCGStab	1.3137001160e-02	4.2150668480e-09	3	true	DILUPBiCGStab	5.3908703120e-04	6.8078389230e-08	2	true	DICPCG	2.0017756110e-02	1.9408365770e-04	70	true
0.039318362       	DILUPBiCGStab	1.4427715030e-03	1.6557960420e-05	1	true	smoothSolver	1.0936080250e-02	2.0516576580e-09	6	3.5056600730e-03	9.0574379910e-08	4	3.2854663250e-02	8.1756724420e-08	4	false	DILUPBiCGStab	1.2838541130e-02	4.2009876020e-09	3	true	DILUPBiCGStab	5.3426952250e-04	1.8542873430e-10	3	true	DICPCG	1.8808978410e-02	1.8340734020e-04	70	true
0.039788762       	DILUPBiCGStab	1.4356736490e-03	1.6492465640e-05	1	true	smoothSolver	1.0871729320e-02	2.0348788320e-09	6	3.4449230500e-03	9.1198492690e-08	4	3.4209581930e-02	8.0392294080e-08	4	false	DILUPBiCGStab	1.2631793050e-02	4.2866579840e-09	3	true	DILUPBiCGStab	5.3281161430e-04	1.8326714630e-10	3	true	DICPCG	1.7535678750e-02	1.7323952700e-04	71	true
0.040255516       	DILUPBiCGStab	1.4172134270e-03	1.6055657500e-05	1	true	smoothSolver	1.0727528320e-02	1.9423531870e-09	6	3.3592457990e-03	8.9005854540e-08	4	3.5352153120e-02	7.6373086820e-08	4	false	DILUPBiCGStab	1.2344476180e-02	4.1309960750e-09	3	true	DILUPBiCGStab	5.2802664130e-04	9.9494415660e-08	2	true	DICPCG	1.6230057850e-02	1.4383807020e-04	72	true
0.040718651       	DILUPBiCGStab	1.3982922270e-03	1.5604963360e-05	1	true	smoothSolver	1.0573219030e-02	1.8585723590e-09	6	3.2802051970e-03	8.6931879340e-08	4	3.6418606940e-02	7.2476591760e-08	4	false	DILUPBiCGStab	1.2065747800e-02	4.0879801850e-09	3	true	DILUPBiCGStab	5.2332237020e-04	9.3831077070e-08	2	true	DICPCG	1.4912324750e-02	1.3416773660e-04	72	true
0.041181787       	DILUPBiCGStab	1.3893083830e-03	1.5461350150e-05	1	true	smoothSolver	1.0471587920e-02	1.8616724860e-09	6	3.2742485820e-03	8.7797031160e-08	4	3.7540877640e-02	7.0937572180e-08	4	false	DILUPBiCGStab	1.1879727260e-02	4.2776177040e-09	3	true	DILUPBiCGStab	5.2212761500e-04	8.3129657700e-08	2	true	DICPCG	1.3584280890e-02	1.2886198460e-04	72	true