# Region type :   patch branch_inlet
# Faces           : 80
# Area            : 5.2524867279e-03
# Scale factor    : 1.0000000000e+00
# Time            	sum(phi)
0.0022201342      	-3.6342736345e-01
0.0092362185      	-3.6422259969e-01
0.01329353        	-3.6664095689e-01
0.017032701       	-3.6711527496e-01
0.020824973       	-3.7101166204e-01
0.02425977        	-3.7295014049e-01
0.02755924        	-3.7321543750e-01
0.030546514       	-3.7437144450e-01
0.03329083        	-3.7508169273e-01
0.035986112       	-3.7609391509e-01
0.038646928       	-3.7801590951e-01
0.041237274       	-3.7951066468e-01
0.043779756       	-3.8006991143e-01
0.046250846       	-3.8061912722e-01
0.048613841       	-3.8128247938e-01
0.050901729       	-3.8184932570e-01
0.053161592       	-3.8267864293e-01
0.055398989       	-3.8391488738e-01
0.057607046       	-3.8503092430e-01
0.059791216       	-3.8570699778e-01
0.061940518       	-3.8621924338e-01
0.064031554       	-3.8672956310e-01
0.066061852       	-3.8716996157e-01
0.068047089       	-3.8767409741e-01
0.069995134       	-3.8842089976e-01
0.071910281       	-3.8928286488e-01
0.07380231        	-3.8999402599e-01
0.075680105       	-3.9051971378e-01
0.077539503       	-3.9096968209e-01
0.079373814       	-3.9135106013e-01
0.081183256       	-3.9167318803e-01
0.08297507        	-3.9207798915e-01
0.084752428       	-3.9266429114e-01
0.086517486       	-3.9332676230e-01
0.088272663       	-3.9392362227e-01
0.09001732        	-3.9444368819e-01
0.091743793       	-3.9489316433e-01
0.093447206       	-3.9523009659e-01
0.095127409       	-3.9549736158e-01
0.096781083       	-3.9582507103e-01
0.09843181        	-3.9626637431e-01
0.10008137        	-3.9675276190e-01
0.10170691        	-3.9723169418e-01
0.10332816        	-3.9770528421e-01
0.10494243        	-3.9811687780e-01
0.10654737        	-3.9842009655e-01
0.10814182        	-3.9868291577e-01
0.10972515        	-3.9899655884e-01
0.11129903        	-3.9936270641e-01
0.11286693        	-3.9976085909e-01
0.11443111        	-4.0020135426e-01
0.11599079        	-4.0063858908e-01
0.11754478        	-4.0098941647e-01
0.11909147        	-4.0126546312e-01
0.12062904        	-4.0153837627e-01
0.12215766        	-4.0182874018e-01
0.12367987        	-4.0214691277e-01
0.12519791        	-4.0252600692e-01
0.12671249        	-4.0293229647e-01
0.12822341        	-4.0328075907e-01
0.12972916        	-4.0356200252e-01
0.13122777        	-4.0382018548e-01
0.13271891        	-4.0407220651e-01
0.13420429        	-4.0434844632e-01
0.13568575        	-4.0468888366e-01
0.13716482        	-4.0505702857e-01
0.13864155        	-4.0537940758e-01
0.14011517        	-4.0564753627e-01
0.14158463        	-4.0589215110e-01
0.14305087        	-4.0613792726e-01
0.14451581        	-4.0642442809e-01
0.1459823         	-4.0676940176e-01
0.14745128        	-4.0711805533e-01
0.14892118        	-4.0741161564e-01
0.15039107        	-4.0766194856e-01
0.15185867        	-4.0791522631e-01
0.15332347        	-4.0820689887e-01
0.1547861         	-4.0854551152e-01
0.15624577        	-4.0888684752e-01
0.15770034        	-4.0916957744e-01
0.15914792        	-4.0939983821e-01
0.16058786        	-4.0964506382e-01
0.16202099        	-4.0994416349e-01
0.16344833        	-4.1026948003e-01
0.16486832        	-4.1056068696e-01
0.16627873        	-4.1078816845e-01
0.16767759        	-4.1099264662e-01
0.16906414        	-4.1124057107e-01
0.1704376         	-4.1153214116e-01
0.17179527        	-4.1179931564e-01
0.17313264        	-4.1199645392e-01
0.1744445         	-4.1215026252e-01
0.17572672        	-4.1231711091e-01
0.17697529        	-4.1251507645e-01
0.17818528        	-4.1270265559e-01
0.17935189        	-4.1282717065e-01
0.18047           	-4.1288261371e-01
0.18153739        	-4.1290343921e-01
0.18255379        	-4.1292098540e-01
0.18352157        	-4.1293935781e-01
0.18444449        	-4.1293970534e-01
0.18532572        	-4.1289915848e-01
0.1861697         	-4.1280685237e-01
0.1869803         	-4.1266892710e-01
0.18776184        	-4.1250312352e-01
0.18851838        	-4.1232697509e-01
0.18925339        	-4.1215036722e-01
0.18997039        	-4.1197771633e-01
0.19067224        	-4.1180502440e-01
0.19136102        	-4.1162379934e-01
0.19203886        	-4.1142693740e-01
0.1927069         	-4.1121087649e-01
0.19336635        	-4.1097640501e-01
0.19401838        	-4.1072987321e-01
0.19466355        	-4.1047926282e-01
0.19530352        	-4.1023138365e-01
0.19593856        	-4.0999041087e-01
0.19656932        	-4.0975634125e-01
0.1971988         	-4.0952534857e-01
0.19782213        	-4.0929461116e-01
0.19844438        	-4.0905691542e-01
0.19906663        	-4.0880752024e-01
0.19968888        	-4.0854550636e-01
0.200308          	-4.0827500957e-01
0.20092287        	-4.0800145098e-01
0.20153648        	-4.0772885217e-01
0.20214908        	-4.0746159360e-01
0.202761          	-4.0720159108e-01
0.20337249        	-4.0694779333e-01
0.20398386        	-4.0669712433e-01
0.20459523        	-4.0644512881e-01
0.20520661        	-4.0618790304e-01
0.20581815        	-4.0592240527e-01
0.20642987        	-4.0564847330e-01
0.20704186        	-4.0536872035e-01
0.20765417        	-4.0508743016e-01
0.20826693        	-4.0480891950e-01
0.20888028        	-4.0453617377e-01
0.20949437        	-4.0427020629e-01
0.21010934        	-4.0400972643e-01
0.21072529        	-4.0375157018e-01
0.21134229        	-4.0349176281e-01
0.21196045        	-4.0322696676e-01
0.2125799         	-4.0295537293e-01
0.21320061        	-4.0267750731e-01
0.21382244        	-4.0239612256e-01
0.21444534        	-4.0211544558e-01
0.21506938        	-4.0183929721e-01
0.21569458        	-4.0156957729e-01
0.21632102        	-4.0130579638e-01
0.21694873        	-4.0104582212e-01
0.21757776        	-4.0078645473e-01
0.21820802        	-4.0052429274e-01
0.21883945        	-4.0025715812e-01
0.21947196        	-3.9998451844e-01
0.22010543        	-3.9970780989e-01
0.2207398         	-3.9943018250e-01
0.22137503        	-3.9915530135e-01
0.2220111         	-3.9888578896e-01
0.22264803        	-3.9862192998e-01
0.22328582        	-3.9836213532e-01
0.2239244         	-3.9810370603e-01
0.22456373        	-3.9784368705e-01
0.22520378        	-3.9757969819e-01
0.22584445        	-3.9731078803e-01
0.2264857         	-3.9703775698e-01
0.22712754        	-3.9676295574e-01
0.22777002        	-3.9648950850e-01
0.22841323        	-3.9622012085e-01
0.22905731        	-3.9595583008e-01
0.22970244        	-3.9569571626e-01
0.23034874        	-3.9543753246e-01
0.23099633        	-3.9517874988e-01
0.23164529        	-3.9491741161e-01
0.23229574        	-3.9465265017e-01
0.23294777        	-3.9438491579e-01
0.23360143        	-3.9411621325e-01
0.2342569         	-3.9384927865e-01
0.23491425        	-3.9358684794e-01
0.2355736         	-3.9332973664e-01
0.23623507        	-3.9307734596e-01
0.2368987         	-3.9282766705e-01
0.23756454        	-3.9257815276e-01
0.23823254        	-3.9232682315e-01
0.23890264        	-3.9207297917e-01
0.23957474        	-3.9181723278e-01
0.24024885        	-3.9156123925e-01
0.24092487        	-3.9130744248e-01
0.24160283        	-3.9105789732e-01
0.24228276        	-3.9081301654e-01
0.24296466        	-3.9057214159e-01
0.24364845        	-3.9033310191e-01
0.24433408        	-3.9009379125e-01
0.24502145        	-3.8985223138e-01
0.24571045        	-3.8960833843e-01
0.24640096        	-3.8936306927e-01
0.2470929         	-3.8911817838e-01
0.24778622        	-3.8887563392e-01
0.24848086        	-3.8863705229e-01
0.24917683        	-3.8840213496e-01
0.24987407        	-3.8816939860e-01
0.25057264        	-3.8793672078e-01
0.25127243        	-3.8770257903e-01
0.25197345        	-3.8746597620e-01
0.25267567        	-3.8722749609e-01
0.25337917        	-3.8698876630e-01
0.254084          	-3.8675165770e-01
0.2547903         	-3.8651759870e-01
0.25549822        	-3.8628730176e-01
0.2562079         	-3.8606013092e-01
0.25691957        	-3.8583441360e-01
0.25763324        	-3.8560866172e-01
0.25834914        	-3.8538202340e-01
0.25906727        	-3.8515467955e-01
0.2597877         	-3.8492786356e-01
0.26051056        	-3.8470330456e-01
0.26123591        	-3.8448240221e-01
0.26196382        	-3.8426577843e-01
0.26269431        	-3.8405272943e-01
0.26342746        	-3.8384182055e-01
0.26416315        	-3.8363144367e-01
0.26490145        	-3.8342083830e-01
0.26564225        	-3.8320991906e-01
0.26638549        	-3.8299975487e-01
0.26713121        	-3.8279172616e-01
0.26787938        	-3.8258703932e-01
0.26863005        	-3.8238615749e-01
0.26938329        	-3.8218844651e-01
0.27013913        	-3.8199265384e-01
0.27089756        	-3.8179752753e-01
0.27165852        	-3.8160238448e-01
0.27242209        	-3.8140748303e-01
0.27318826        	-3.8121395257e-01
0.27395702        	-3.8102300168e-01
0.2747285         	-3.8083564645e-01
0.27550259        	-3.8065199997e-01
0.27627938        	-3.8047107981e-01
0.27705891        	-3.8029155984e-01
0.27784122        	-3.8011267596e-01
0.27862624        	-3.7993417016e-01
0.27941401        	-3.7975675610e-01
0.28020436        	-3.7958155178e-01
0.28099731        	-3.7940941506e-01
0.28179317        	-3.7924076072e-01
0.28259166        	-3.7907521860e-01
0.28339289        	-3.7891159844e-01
0.28419664        	-3.7874899093e-01
0.28500337        	-3.7858694355e-01
0.2858126         	-3.7842589955e-01
0.28662451        	-3.7826676133e-01
0.28743901        	-3.7811042434e-01
0.28825616        	-3.7795727250e-01
0.28907603        	-3.7780706946e-01
0.28989868        	-3.7765896883e-01
0.290724          	-3.7751210621e-01
0.29155222        	-3.7736616072e-01
0.29238395        	-3.7722154539e-01
0.29321826        	-3.7707898346e-01
0.29405551        	-3.7693935314e-01
0.29489711        	-3.7680319221e-01
0.29574056        	-3.7667061334e-01
0.29658991        	-3.7654045695e-01
0.29744243        	-3.7641257013e-01
0.29829495        	-3.7628732481e-01
0.29914748        	-3.7616558079e-01
0.3               	-3.7604804308e-01
0.30087212        	-3.7593329152e-01
0.30174995        	-3.7582382554e-01
0.30263384        	-3.7571926821e-01
0.303524          	-3.7561860393e-01
0.30442049        	-3.7552178139e-01
0.30532328        	-3.7542930851e-01
0.30623227        	-3.7534156615e-01
0.30714718        	-3.7525846939e-01
0.30806764        	-3.7518052241e-01
0.3089932         	-3.7510697766e-01
0.30992301        	-3.7503644204e-01
0.3108566         	-3.7496790783e-01
0.31179355        	-3.7490107054e-01
0.31273348        	-3.7483599268e-01
0.31367601        	-3.7477297271e-01
0.31462107        	-3.7471242762e-01
0.31556863        	-3.7465419829e-01
0.31651866        	-3.7459759732e-01
0.31747133        	-3.7454227281e-01
0.3184268         	-3.7448851379e-01
0.3193852         	-3.7443692013e-01
0.32034685        	-3.7438817627e-01
0.32131212        	-3.7434284400e-01
0.32228143        	-3.7430107857e-01
0.32325511        	-3.7426262448e-01
0.32423364        	-3.7422750147e-01
0.32521735        	-3.7419626384e-01
0.32620658        	-3.7416963383e-01
0.32720172        	-3.7414830311e-01
0.32820295        	-3.7413273781e-01
0.32921026        	-3.7412278543e-01
0.33022355        	-3.7411787991e-01
0.33124246        	-3.7411748216e-01
0.33226641        	-3.7412130352e-01
0.33329468        	-3.7412892688e-01
0.33432656        	-3.7413984397e-01
0.33536132        	-3.7415323444e-01
0.33639816        	-3.7416816745e-01
0.33743635        	-3.7418375397e-01
0.33847561        	-3.7419948924e-01
0.33951554        	-3.7421548921e-01
0.34055568        	-3.7423194794e-01
0.34159633        	-3.7424895135e-01
0.34263739        	-3.7426647182e-01
0.34367865        	-3.7428431471e-01
0.34472067        	-3.7430235783e-01
0.3457627         	-3.7432071845e-01
0.34680533        	-3.7433960155e-01
0.34784836        	-3.7435900776e-01
0.34889139        	-3.7437879091e-01
0.34993442        	-3.7439865138e-01
0.35097746        	-3.7441835491e-01
0.35202049        	-3.7443784264e-01
0.35306335        	-3.7445717365e-01
0.35410523        	-3.7447643922e-01
0.35514711        	-3.7449548857e-01
0.35618874        	-3.7451427840e-01
0.35722939        	-3.7453262239e-01
0.35827004        	-3.7455050135e-01
0.35931009        	-3.7456804290e-01
0.36034943        	-3.7458538877e-01
0.36138876        	-3.7460258669e-01
0.36242809        	-3.7461964470e-01
0.36346627        	-3.7463649117e-01
0.36450416        	-3.7465305889e-01
0.36554205        	-3.7466943042e-01
0.36657994        	-3.7468569212e-01
0.36761638        	-3.7470174897e-01
0.36865265        	-3.7471750271e-01
0.36968781        	-3.7473276034e-01
0.37072199        	-3.7474726522e-01
0.37175454        	-3.7476063582e-01
0.37278501        	-3.7477279782e-01
0.37381304        	-3.7478336264e-01
0.37483825        	-3.7479195742e-01
0.37586002        	-3.7479814920e-01
0.3768777         	-3.7480154887e-01
0.37789092        	-3.7480172084e-01
0.37889928        	-3.7479829055e-01
0.37990249        	-3.7479121052e-01
0.38090046        	-3.7478024366e-01
0.38189311        	-3.7476536402e-01
0.38288077        	-3.7474669719e-01
0.38386332        	-3.7472443036e-01
0.38484201        	-3.7469893565e-01
0.38581663        	-3.7467074060e-01
0.3867881         	-3.7464044551e-01
0.38775684        	-3.7460854399e-01
0.38872468        	-3.7457548525e-01
0.38969207        	-3.7454175568e-01
0.39065543        	-3.7450781598e-01
0.39161879        	-3.7447379233e-01
0.39258214        	-3.7443983755e-01
0.3935455         	-3.7440617675e-01
0.39450886        	-3.7437258906e-01
0.39547222        	-3.7433890052e-01
0.39643558        	-3.7430500677e-01
0.39739893        	-3.7427062851e-01
0.39836229        	-3.7423552233e-01
0.39932565        	-3.7419945540e-01
0.40028786        	-3.7416228217e-01
0.40124638        	-3.7412380225e-01
0.40220306        	-3.7408363954e-01
0.40315773        	-3.7404167642e-01
0.40411027        	-3.7399776197e-01
0.40506049        	-3.7395162627e-01
0.40600839        	-3.7390327149e-01
0.406954          	-3.7385279353e-01
0.4078974         	-3.7380026104e-01
0.40883881        	-3.7374581899e-01
0.40977844        	-3.7368972880e-01
0.41071659        	-3.7363235483e-01
0.41165357        	-3.7357391304e-01
0.41258974        	-3.7351473534e-01
0.41352561        	-3.7345525357e-01
0.41446121        	-3.7339579210e-01
0.41539708        	-3.7333653987e-01
0.41633329        	-3.7327777263e-01
0.41727008        	-3.7321963825e-01
0.41820769        	-3.7316219128e-01
0.41914602        	-3.7310541985e-01
0.42008529        	-3.7304936399e-01
0.42102527        	-3.7299403111e-01
0.42196617        	-3.7293932224e-01
0.42290784        	-3.7288524744e-01
0.42385041        	-3.7283180712e-01
0.42479376        	-3.7277899207e-01
0.42573797        	-3.7272680310e-01
0.42668305        	-3.7267529866e-01
0.42762905        	-3.7262450975e-01
0.42857601        	-3.7257454325e-01
0.42952403        	-3.7252535692e-01
0.43047308        	-3.7247704709e-01
0.43142326        	-3.7242962152e-01
0.43237459        	-3.7238322617e-01
0.43332707        	-3.7233788305e-01
0.43428066        	-3.7229347358e-01
0.43523547        	-3.7224985909e-01
0.43619137        	-3.7220701465e-01
0.43714839        	-3.7216529101e-01
0.43810649        	-3.7212458930e-01
0.43906564        	-3.7208473998e-01
0.44002573        	-3.7204564970e-01
0.44098686        	-3.7200722262e-01
0.44194901        	-3.7196952141e-01
0.44291211        	-3.7193246252e-01
0.44387619        	-3.7189625110e-01
0.44484139        	-3.7186090898e-01
0.44580778        	-3.7182636645e-01
0.44677546        	-3.7179270481e-01
0.44774464        	-3.7176002470e-01
0.44871557        	-3.7172851489e-01
0.44968853        	-3.7169839393e-01
0.45066381        	-3.7166997909e-01
0.45164184        	-3.7164354776e-01
0.45262294        	-3.7161932908e-01
0.45360762        	-3.7159762475e-01
0.45459628        	-3.7157880639e-01
0.45558938        	-3.7156322565e-01
0.45658729        	-3.7155125126e-01
0.45759026        	-3.7154320680e-01
0.45859872        	-3.7153925826e-01
0.45961249        	-3.7153946551e-01
0.46063169        	-3.7154365322e-01
0.46165593        	-3.7155175199e-01
0.46268484        	-3.7156353344e-01
0.46371795        	-3.7157851426e-01
0.46475467        	-3.7159610888e-01
0.4657943         	-3.7161581969e-01
0.46683629        	-3.7163697644e-01
0.46788001        	-3.7165913246e-01
0.46892456        	-3.7168202973e-01
0.46997079        	-3.7170547384e-01
0.4710171         	-3.7172921962e-01
0.47206381        	-3.7175329315e-01
0.47311207        	-3.7177785564e-01
0.47416086        	-3.7180323927e-01
0.47521123        	-3.7182981572e-01
0.47626362        	-3.7185791111e-01
0.47731812        	-3.7188787958e-01
0.47837519        	-3.7192000296e-01
0.47943564        	-3.7195471533e-01
0.48049954        	-3.7199243336e-01
0.48156693        	-3.7203356043e-01
0.48263834        	-3.7207837794e-01
0.48371407        	-3.7212695841e-01
0.48479373        	-3.7217914058e-01
0.48587705        	-3.7223475713e-01
0.48696343        	-3.7229344518e-01
0.48805372        	-3.7235465844e-01
0.48914471        	-3.7241779796e-01
0.49023569        	-3.7248220647e-01
0.49133053        	-3.7254735496e-01
0.49242793        	-3.7261252967e-01
0.49352533        	-3.7267714860e-01
0.49462273        	-3.7274086826e-01
0.49572013        	-3.7280371482e-01
0.49681754        	-3.7286565401e-01
0.49791494        	-3.7292648826e-01
0.49901234        	-3.7298618935e-01
0.50010864        	-3.7304473383e-01
0.50119403        	-3.7310165125e-01
0.50227811        	-3.7315757215e-01
0.50336087        	-3.7321268435e-01
0.50444229        	-3.7326683089e-01
0.50552228        	-3.7331960823e-01
0.50660082        	-3.7337106758e-01
0.50767793        	-3.7342133136e-01
0.50875344        	-3.7347040955e-01
0.5098275         	-3.7351822276e-01
0.51090005        	-3.7356470842e-01
0.51197106        	-3.7360986545e-01
0.51304063        	-3.7365388145e-01
0.51410876        	-3.7369673855e-01
0.51517547        	-3.7373814352e-01
0.51624083        	-3.7377854091e-01
0.51730488        	-3.7381791563e-01
0.51836762        	-3.7385633128e-01
0.51942913        	-3.7389370253e-01
0.5204893         	-3.7393008218e-01
0.5215481         	-3.7396529219e-01
0.52260536        	-3.7399934366e-01
0.52366097        	-3.7403222377e-01
0.52471468        	-3.7406376300e-01
0.52576629        	-3.7409373593e-01
0.52681545        	-3.7412186601e-01
0.52786176        	-3.7414788830e-01
0.52890489        	-3.7417149253e-01
0.52994444        	-3.7419244093e-01
0.53097995        	-3.7421046214e-01
0.53201113        	-3.7422524024e-01
0.53303764        	-3.7423647167e-01
0.53405925        	-3.7424396838e-01
0.53507586        	-3.7424763446e-01
0.53608741        	-3.7424749580e-01
0.53709405        	-3.7424367075e-01
0.53809597        	-3.7423630607e-01
0.53909349        	-3.7422561216e-01
0.5400871         	-3.7421189470e-01
0.54107714        	-3.7419560400e-01
0.5420642         	-3.7417706155e-01
0.5430487         	-3.7415675489e-01
0.54403125        	-3.7413503334e-01
0.54501212        	-3.7411224586e-01
0.54599177        	-3.7408861098e-01
0.5469704         	-3.7406429945e-01
0.54794822        	-3.7403949597e-01
0.54892534        	-3.7401417101e-01
0.54990182        	-3.7398831183e-01
0.55087744        	-3.7396184763e-01
0.55185214        	-3.7393462146e-01
0.55282586        	-3.7390641828e-01
0.55379821        	-3.7387704839e-01
0.55476924        	-3.7384633068e-01
0.5557385         	-3.7381407498e-01
0.55670601        	-3.7378008354e-01
0.55767158        	-3.7374420483e-01
0.55863506        	-3.7370631843e-01
0.55959636        	-3.7366633081e-01
0.56055549        	-3.7362424993e-01
0.56151247        	-3.7358010877e-01
0.56246748        	-3.7353398701e-01
0.56342062        	-3.7348601897e-01
0.56437209        	-3.7343640893e-01
0.56532204        	-3.7338536529e-01
0.56627082        	-3.7333312558e-01
0.56721853        	-3.7327997725e-01
0.56816597        	-3.7322617980e-01
0.56911341        	-3.7317198253e-01
0.57006085        	-3.7311762718e-01
0.57100829        	-3.7306333097e-01
0.57195573        	-3.7300924700e-01
0.57290318        	-3.7295554123e-01
0.57385179        	-3.7290224747e-01
0.57480091        	-3.7284945478e-01
0.57575049        	-3.7279721688e-01
0.57670145        	-3.7274542759e-01
0.57765241        	-3.7269419232e-01
0.57860511        	-3.7264344888e-01
0.57955811        	-3.7259322534e-01
0.58051169        	-3.7254359920e-01
0.581467          	-3.7249442253e-01
0.58242231        	-3.7244596198e-01
0.58337869        	-3.7239808174e-01
0.58433669        	-3.7235076206e-01
0.58529469        	-3.7230419544e-01
0.58625384        	-3.7225832067e-01
0.58721511        	-3.7221317428e-01
0.58817638        	-3.7216896708e-01
0.58913765        	-3.7212546438e-01
0.59010178        	-3.7208252072e-01
0.59106746        	-3.7204027643e-01
0.59203314        	-3.7199890012e-01
0.59299882        	-3.7195831039e-01
0.5939645         	-3.7191853205e-01
0.59493018        	-3.7187962664e-01
0.59589586        	-3.7184126849e-01
0.59686154        	-3.7180360628e-01
0.59782722        	-3.7176672643e-01
0.5987929         	-3.7173072589e-01
0.59975858        	-3.7169561960e-01
0.60073195        	-3.7166126922e-01
0.60170924        	-3.7162790637e-01
0.60268838        	-3.7159562949e-01
0.60366952        	-3.7156449813e-01
0.60465299        	-3.7153500105e-01
0.60563908        	-3.7150755693e-01
0.60662814        	-3.7148217814e-01
0.60762049        	-3.7145916292e-01
0.60861651        	-3.7143874129e-01
0.6096165         	-3.7142105685e-01
0.61062077        	-3.7140637124e-01
0.61162957        	-3.7139507740e-01
0.61264301        	-3.7138737757e-01
0.61366114        	-3.7138318923e-01
0.61468391        	-3.7138249932e-01
0.61571123        	-3.7138508551e-01
0.6167428         	-3.7139066682e-01
0.61777822        	-3.7139917871e-01
0.61881714        	-3.7141035518e-01
0.61985908        	-3.7142368591e-01
0.62090351        	-3.7143879711e-01
0.62195001        	-3.7145524955e-01
0.62299833        	-3.7147270610e-01
0.62404812        	-3.7149106257e-01
0.62509921        	-3.7151032164e-01
0.6261516         	-3.7153044132e-01
0.62720534        	-3.7155143158e-01
0.62826045        	-3.7157345815e-01
0.62931712        	-3.7159663614e-01
0.63037569        	-3.7162120275e-01
0.63143639        	-3.7164759330e-01
0.63249965        	-3.7167617349e-01
0.63356568        	-3.7170719185e-01
0.63463479        	-3.7174087557e-01
0.6357072         	-3.7177741805e-01
0.63678293        	-3.7181693344e-01
0.63786214        	-3.7185956381e-01
0.63894479        	-3.7190526314e-01
0.64003066        	-3.7195386216e-01
0.64111948        	-3.7200512976e-01
0.64221083        	-3.7205866119e-01
0.64330419        	-3.7211398681e-01
0.64439908        	-3.7217066398e-01
0.64549472        	-3.7222814235e-01
0.64659141        	-3.7228595035e-01
0.64768809        	-3.7234379711e-01
0.64878391        	-3.7240126726e-01
0.64987938        	-3.7245824494e-01
0.65097372        	-3.7251445052e-01
0.65206708        	-3.7256983534e-01
0.65315931        	-3.7262428062e-01
0.6542504         	-3.7267785338e-01
0.65534025        	-3.7273052598e-01
0.65642891        	-3.7278229573e-01
0.65751627        	-3.7283320792e-01
0.65860232        	-3.7288299866e-01
0.65968709        	-3.7293184704e-01
0.66077047        	-3.7297960806e-01
0.66185244        	-3.7302634587e-01
0.66293302        	-3.7307203230e-01
0.66401212        	-3.7311641485e-01
0.66508968        	-3.7315952688e-01
0.66616574        	-3.7320162425e-01
0.66724035        	-3.7324258013e-01
0.66831363        	-3.7328256194e-01
0.66938564        	-3.7332140936e-01
0.67045608        	-3.7335908578e-01
0.67152514        	-3.7339562619e-01
0.6725932         	-3.7343132077e-01
0.67365961        	-3.7346614020e-01
0.6747245         	-3.7349992832e-01
0.67578827        	-3.7353267843e-01
0.67685019        	-3.7356416916e-01
0.67791014        	-3.7359430316e-01
0.67896818        	-3.7362304552e-01
0.68002397        	-3.7365028032e-01
0.68107725        	-3.7367566391e-01
0.68212745        	-3.7369895444e-01
0.68317443        	-3.7371985882e-01
0.68421782        	-3.7373810974e-01
0.68525744        	-3.7375354500e-01
0.68629304        	-3.7376604298e-01
0.68732437        	-3.7377536726e-01
0.68835113        	-3.7378140425e-01
0.68937337        	-3.7378411643e-01
0.69039095        	-3.7378353908e-01
0.69140442        	-3.7377980693e-01
0.69241501        	-3.7377311230e-01
0.69341964        	-3.7376370500e-01
0.69442428        	-3.7375180563e-01
0.69542147        	-3.7373780084e-01
0.6964168         	-3.7372188866e-01
0.69741214        	-3.7370430339e-01
0.69840747        	-3.7368551215e-01
0.6994028         	-3.7366558247e-01
0.7003955         	-3.7364468255e-01
0.70138344        	-3.7362315493e-01
0.7023703         	-3.7360097511e-01
0.70335616        	-3.7357822007e-01
0.70434101        	-3.7355484546e-01
0.70532483        	-3.7353059857e-01
0.70630752        	-3.7350541268e-01
0.707289          	-3.7347914406e-01
0.70826908        	-3.7345173384e-01
0.70924767        	-3.7342303641e-01
0.71022463        	-3.7339294540e-01
0.71119981        	-3.7336131021e-01
0.71217323        	-3.7332795480e-01
0.71314476        	-3.7329283852e-01
0.71411442        	-3.7325599871e-01
0.71508228        	-3.7321747880e-01
0.7160484         	-3.7317736077e-01
0.71701283        	-3.7313575658e-01
0.71797581        	-3.7309277166e-01
0.71893746        	-3.7304850733e-01
0.71989803        	-3.7300317305e-01
0.72085765        	-3.7295700017e-01
0.7218166         	-3.7291020653e-01
0.72277514        	-3.7286301386e-01
0.72373327        	-3.7281561185e-01
0.72469139        	-3.7276811540e-01
0.72564951        	-3.7272068117e-01
0.72660826        	-3.7267340493e-01
0.72756722        	-3.7262642526e-01
0.72852669        	-3.7257984219e-01
0.72948674        	-3.7253372547e-01
0.73044745        	-3.7248810345e-01
0.73140885        	-3.7244297758e-01
0.73237099        	-3.7239836408e-01
0.73333389        	-3.7235427683e-01
0.73429756        	-3.7231075322e-01
0.735262          	-3.7226776743e-01
0.73622727        	-3.7222554181e-01
0.73719338        	-3.7218390555e-01
0.73816045        	-3.7214297230e-01
0.73912847        	-3.7210267694e-01
0.74009742        	-3.7206314998e-01
0.74106727        	-3.7202445568e-01
0.74203816        	-3.7198654240e-01
0.74301011        	-3.7194935430e-01
0.74398301        	-3.7191294976e-01
0.74495688        	-3.7187728952e-01
0.74593175        	-3.7184233671e-01
0.74690758        	-3.7180813020e-01
0.74788448        	-3.7177483029e-01
0.7488624         	-3.7174233807e-01
0.74984135        	-3.7171038530e-01
0.7508214         	-3.7167920452e-01
0.75180257        	-3.7164887813e-01
0.75278489        	-3.7161935347e-01
0.7537687         	-3.7159078481e-01
0.75475397        	-3.7156336694e-01
0.75574097        	-3.7153707197e-01
0.75672984        	-3.7151200044e-01
0.75772081        	-3.7148840228e-01
0.75871416        	-3.7146648183e-01
0.75971016        	-3.7144640809e-01
0.76070893        	-3.7142844831e-01
0.76171101        	-3.7141283073e-01
0.76271651        	-3.7139966350e-01
0.76372562        	-3.7138911651e-01
0.76473868        	-3.7138143193e-01
0.76575569        	-3.7137668569e-01
0.76677663        	-3.7137494448e-01
0.76780175        	-3.7137617937e-01
0.76883071        	-3.7138031721e-01
0.76986343        	-3.7138717298e-01
0.77089969        	-3.7139657651e-01
0.7719391         	-3.7140832554e-01
0.7729814         	-3.7142212118e-01
0.77402612        	-3.7143769276e-01
0.77507315        	-3.7145473673e-01
0.77612206        	-3.7147299360e-01
0.77717236        	-3.7149228859e-01
0.77822432        	-3.7151254809e-01
0.77927759        	-3.7153369725e-01
0.78033217        	-3.7155574488e-01
0.78138806        	-3.7157874494e-01
0.78244555        	-3.7160281040e-01
0.78350454        	-3.7162811156e-01
0.78456534        	-3.7165488964e-01
0.78562858        	-3.7168336987e-01
0.78669313        	-3.7171372245e-01
0.78776135        	-3.7174618236e-01
0.78883049        	-3.7178081850e-01
0.78990448        	-3.7181788260e-01
0.79097847        	-3.7185723409e-01
0.79205861        	-3.7189910928e-01
0.79313907        	-3.7194313273e-01
0.79421953        	-3.7198913869e-01
0.79529999        	-3.7203677409e-01
0.79638045        	-3.7208593559e-01
0.79746092        	-3.7213619657e-01
0.79854138        	-3.7218714366e-01
0.79962184        	-3.7223850614e-01
0.80070845        	-3.7229025192e-01
0.80179837        	-3.7234201108e-01
0.80288789        	-3.7239331779e-01
0.8039768         	-3.7244396012e-01
0.80506488        	-3.7249393158e-01
0.80615203        	-3.7254318500e-01
0.80723807        	-3.7259150889e-01
0.80832304        	-3.7263888917e-01
0.80940681        	-3.7268526046e-01
0.81048936        	-3.7273062081e-01
0.81157067        	-3.7277492477e-01
0.81265065        	-3.7281826166e-01
0.81372937        	-3.7286046500e-01
0.81480674        	-3.7290155609e-01
0.81588275        	-3.7294155972e-01
0.81695738        	-3.7298023140e-01
0.81803063        	-3.7301765725e-01
0.81910247        	-3.7305408795e-01
0.82017297        	-3.7308941128e-01
0.8212421         	-3.7312351057e-01
0.82230989        	-3.7315657447e-01
0.82337637        	-3.7318847552e-01
0.82444158        	-3.7321912616e-01
0.82550541        	-3.7324875078e-01
0.8265679         	-3.7327746342e-01
0.82762902        	-3.7330501510e-01
0.82868862        	-3.7333142311e-01
0.82974661        	-3.7335656870e-01
0.83080285        	-3.7338024750e-01
0.83185716        	-3.7340246619e-01
0.83290931        	-3.7342315342e-01
0.83395907        	-3.7344207188e-01
0.83500621        	-3.7345899773e-01
0.83605053        	-3.7347374425e-01
0.83709171        	-3.7348610130e-01
0.83812953        	-3.7349587098e-01
0.83916389        	-3.7350303078e-01
0.84019452        	-3.7350746275e-01
0.84122143        	-3.7350904652e-01
0.84224455        	-3.7350775564e-01
0.84326396        	-3.7350360825e-01
0.84427972        	-3.7349669433e-01
0.84529198        	-3.7348713714e-01
0.84630088        	-3.7347518277e-01