# Region type :   patch outlet
# Faces           : 387
# Area            : 8.2961616953e-02
# Scale factor    : 1.0000000000e+00
# Time            	areaAverage(H2)
0.0022358089      	0.0000000000e+00
0.013973227       	0.0000000000e+00
0.019638165       	0.0000000000e+00
0.025756229       	0.0000000000e+00
0.032437003       	1.0807559954e-306
0.042074845       	1.3242390772e-242
0.051415835       	2.1206402443e-219
0.058627007       	4.2656394226e-207
0.064474227       	2.1828191508e-198
0.070061843       	2.8650259818e-190
0.075653834       	3.8604267220e-182
0.081757432       	4.5835268659e-173
0.088751534       	1.7654633162e-162
0.096490478       	2.5934040517e-151
0.10325145        	3.0833462190e-143
0.10917447        	4.4598469817e-137
0.11517175        	1.5919280535e-131
0.12273934        	1.0146194603e-125
0.13264856        	8.4488067087e-121
0.14118241        	4.0418526454e-118
0.14894287        	4.7026173083e-116
0.15978505        	3.4316340914e-113
0.17236804        	2.2279893466e-109
0.18161825        	8.8227418528e-107
0.19190104        	4.9523137070e-104
0.20124481        	5.3894717632e-101
0.20942872        	3.0227969696e-97
0.21782208        	3.0773992758e-92
0.22513243        	2.6201896537e-87
0.23144841        	5.1099008912e-83
0.23678045        	1.2711934264e-79
0.24152719        	8.7057502851e-77
0.24615896        	3.6755075462e-74
0.25082269        	1.2778840780e-71
0.25550476        	3.5916606569e-69
0.26030258        	9.2368267051e-67
0.26537553        	2.6492710379e-64
0.27065864        	6.8755949150e-62
0.2760049         	1.2247561955e-59
0.28149586        	1.4406802659e-57
0.28716602        	9.9413433581e-56
0.29287001        	3.4520130304e-54
0.298574          	6.4168132903e-53
0.30458696        	8.3340542950e-52
0.3110402         	8.8503858552e-51
0.31811735        	9.7444238719e-50
0.32563671        	1.2299384531e-48
0.33326774        	1.6681340109e-47
0.34059372        	2.0139973144e-46
0.34722061        	1.9511389257e-45
0.35336884        	1.7475768230e-44
0.3593049         	1.7435214131e-43
0.36520274        	2.4152286064e-42
0.37110058        	5.2181470269e-41
0.37692528        	1.6483629953e-39
0.3825859         	6.3770661621e-38
0.38804735        	2.4961151057e-36
0.39329134        	8.0451245160e-35
0.39845185        	2.1885226451e-33
0.40348437        	4.7738987427e-32
0.40846028        	8.8260568534e-31
0.41349084        	1.5063369442e-29
0.41861852        	2.5235436332e-28
0.42384034        	4.1484301778e-27
0.4291273         	6.3443655308e-26
0.43449884        	8.7615827909e-25
0.43997004        	1.0462653939e-23
0.44551668        	1.0038426785e-22
0.45114719        	7.4689265749e-22
0.45692748        	4.3699838234e-21
0.46292474        	2.0773870405e-20
0.46923893        	8.5050437868e-20
0.47602505        	3.2366993149e-19
0.48323001        	1.1757649502e-18
0.49068334        	4.0388038313e-18
0.49813667        	1.2666208204e-17
0.50515232        	3.4970629201e-17
0.51167868        	8.9539007002e-17
0.51795111        	2.3254574708e-16
0.52414428        	6.6585505469e-16
0.53028672        	2.2064850580e-15
0.53631018        	8.3930755031e-15
0.542148          	3.4978525492e-14
0.54774941        	1.4953381611e-13
0.55313061        	6.2082844580e-13
0.55835795        	2.4557341596e-12
0.56348498        	9.1913274576e-12
0.56859197        	3.2910234090e-11
0.57372784        	1.1383647141e-10
0.57893024        	3.8405108279e-10
0.58418742        	1.2508997320e-09
0.58945828        	3.8482513456e-09
0.59472914        	1.1010569255e-08
0.6               	2.8861900861e-08
0.6054885         	7.0827636469e-08
0.61107147        	1.5736450410e-07
0.61678687        	3.1809425644e-07
0.62271278        	5.9399401204e-07
0.62897814        	1.0477242638e-06
0.6356405         	1.7692593716e-06
0.64263103        	2.8650772647e-06
0.64982026        	4.4408894631e-06
0.65695237        	6.5459305346e-06
0.66385803        	9.2345165808e-06
0.67046961        	1.2674251859e-05
0.67686613        	1.7307489435e-05
0.68315466        	2.4030112750e-05
0.68937681        	3.4321659388e-05
0.69544721        	5.0064669749e-05
0.70144256        	7.4172498687e-05
0.70706338        	1.0786328083e-04
0.71248278        	1.5392656202e-04
0.71776111        	2.1489529574e-04
0.72295491        	2.9343696529e-04
0.72813209        	3.9262140660e-04
0.73334913        	5.1607016950e-04
0.73860166        	6.6686372615e-04
0.74387191        	8.4757838256e-04
0.74916039        	1.0616951442e-03
0.75451334        	1.3159301487e-03
0.75994304        	1.6159107612e-03
0.76545687        	1.9652625723e-03
0.77106544        	2.3645765078e-03
0.77681289        	2.8137725128e-03
0.78279928        	3.3173177896e-03
0.78910834        	3.8809564020e-03
0.79570934        	4.4990206841e-03
0.80243913        	5.1474761175e-03
0.80945435        	5.8311950932e-03
0.81641393        	6.5125927559e-03
0.82320171        	7.1915042324e-03
0.82977163        	7.8911066701e-03
0.83616721        	8.6579442973e-03
0.84243905        	9.5493659735e-03
0.84859479        	1.0607541318e-02
0.85459515        	1.1835488603e-02
0.86038822        	1.3193479711e-02
0.86596529        	1.4620146835e-02
0.87137052        	1.6056060866e-02
0.87666441        	1.7446517462e-02
0.88190836        	1.8734345565e-02
0.88715231        	1.9859385472e-02
0.89239627        	2.0759590294e-02
0.89764022        	2.1391022337e-02
0.90291502        	2.1738661888e-02
0.90824922        	2.1814997163e-02
0.9136463         	2.1659183788e-02
0.91911879        	2.1332170037e-02
0.92468762        	2.0902160007e-02
0.93037024        	2.0431215600e-02
0.93621771        	1.9964492489e-02
0.94232746        	1.9529690046e-02
0.94874585        	1.9149214258e-02
0.95542725        	1.8842825549e-02
0.96227067        	1.8621071518e-02
0.96913054        	1.8483118652e-02
0.9759227         	1.8420640681e-02
0.98256698        	1.8429708944e-02
0.9890545         	1.8517510013e-02
0.99549303        	1.8709793685e-02
1.0018528         	1.9044608723e-02
1.0079335         	1.9543229966e-02
1.0138431         	2.0228461858e-02
1.0195491         	2.1089711509e-02
1.0250798         	2.2098190397e-02
1.0304763         	2.3207163641e-02
1.0357941         	2.4349070144e-02
1.0411004         	2.5429319540e-02
1.046424          	2.6311280054e-02
1.0517549         	2.6830430530e-02
1.0570859         	2.6844356398e-02
1.0624295         	2.6285852040e-02
1.0678175         	2.5190235268e-02
1.073265          	2.3697323529e-02
1.0788036         	2.2001643084e-02
1.0844349         	2.0301501714e-02
1.0901893         	1.8734889710e-02
1.0961352         	1.7368131300e-02
1.1022084         	1.6249615979e-02
1.1086814         	1.5348709280e-02
1.1153478         	1.4697871440e-02
1.1220917         	1.4276087039e-02
1.1288263         	1.4040995621e-02
1.1354891         	1.3951657692e-02
1.1420382         	1.3984201262e-02
1.1484674         	1.4137633090e-02
1.1547725         	1.4432864445e-02
1.160946          	1.4902365401e-02
1.1669735         	1.5572466499e-02
1.1728243         	1.6444243355e-02
1.1784865         	1.7489150462e-02
1.1840079         	1.8661371529e-02
1.189429          	1.9889622040e-02
1.19485           	2.1090550654e-02
