# Region type :   patch outlet
# Faces           : 398
# Area            : 8.2960538044e-02
# Scale factor    : 1.0000000000e+00
# Time            	areaAverage(p_rgh)
0.0022358089      	6.8999999975e+06
0.018084408       	6.8999999975e+06
0.024497192       	6.8999999975e+06
0.031401341       	6.8999999975e+06
0.039420327       	6.8999999975e+06
0.049004118       	6.8999999975e+06
0.062474553       	6.8999999975e+06
0.072161275       	6.8999999975e+06
0.078750915       	6.8999999975e+06
0.084240004       	6.8999999975e+06
0.089731282       	6.8999999975e+06
0.095789071       	6.8999999975e+06
0.10271464        	6.8999999975e+06
0.11294791        	6.8999999975e+06
0.12527129        	6.8999999975e+06
0.13622762        	6.8999999975e+06
0.14542506        	6.8999999975e+06
0.15523419        	6.8999999975e+06
0.1681008         	6.8999999975e+06
0.18163693        	6.8999999975e+06
0.19441409        	6.8999999975e+06
0.20470231        	6.8999999975e+06
0.21602668        	6.8999999975e+06
0.22814628        	6.8999999975e+06
0.23815454        	6.8999999975e+06
0.24619558        	6.8999999975e+06
0.25359939        	6.8999999975e+06
0.26129181        	6.8999999975e+06
0.26986717        	6.8999999975e+06
0.27910187        	6.8999999975e+06
0.28838993        	6.8999999975e+06
0.29840362        	6.8999999975e+06
0.31024045        	6.8999999975e+06
0.32437282        	6.8999999975e+06
0.33911875        	6.8999999975e+06
0.3545752         	6.8999999975e+06
0.37010892        	6.8999999975e+06
0.38266058        	6.8999999975e+06
0.39391412        	6.8999999975e+06
0.40333281        	6.8999999975e+06
0.41056329        	6.8999999975e+06
0.41676808        	6.8999999975e+06
0.42232424        	6.8999999975e+06
0.42748353        	6.8999999975e+06
0.43242971        	6.8999999975e+06
0.43731291        	6.8999999975e+06
0.44225949        	6.8999999975e+06
0.44736834        	6.8999999975e+06
0.45269753        	6.8999999975e+06
0.4582629         	6.8999999975e+06
0.46407473        	6.8999999975e+06
0.47016289        	6.8999999975e+06
0.47656556        	6.8999999975e+06
0.48339228        	6.8999999975e+06
0.49096059        	6.8999999975e+06
0.49955977        	6.8999999975e+06
0.50917117        	6.8999999975e+06
0.51916131        	6.8999999975e+06
0.52852039        	6.8999999975e+06
0.53680529        	6.8999999975e+06
0.54417908        	6.8999999975e+06
0.5508709         	6.8999999975e+06
0.5571255         	6.8999999975e+06
0.56307492        	6.8999999975e+06
0.56875177        	6.8999999975e+06
0.57414632        	6.8999999975e+06
0.57927442        	6.8999999975e+06
0.58420943        	6.8999999975e+06
0.58906807        	6.8999999975e+06
0.5939267         	6.8999999975e+06
0.59878534        	6.8999999975e+06
0.60369303        	6.8999999975e+06
0.6086905         	6.8999999975e+06
0.61380761        	6.8999999975e+06
0.61908567        	6.8999999975e+06
0.62454629        	6.8999999975e+06
0.63020669        	6.8999999975e+06
0.63610906        	6.8999999975e+06
0.64236232        	6.8999999975e+06
0.64912382        	6.8999999975e+06
0.65663216        	6.8999999975e+06
0.6651048         	6.8999999975e+06
0.67448086        	6.8999999975e+06
0.68411073        	6.8999999975e+06
0.69331481        	6.8999999975e+06
0.70202424        	6.8999999975e+06
0.70964644        	6.8999999975e+06
0.71661326        	6.8999999975e+06
0.7230491         	6.8999999975e+06
0.72905432        	6.8999999975e+06
0.73470005        	6.8999999975e+06
0.74005442        	6.8999999975e+06
0.74519801        	6.8999999976e+06
0.75021524        	6.8999999976e+06
0.75517467        	6.8999999976e+06
0.76012774        	6.8999999977e+06
0.76511257        	6.8999999978e+06
0.7701464         	6.8999999981e+06
0.77524087        	6.8999999987e+06
0.78042665        	6.8999999999e+06
0.78573837        	6.9000000020e+06
0.7911935         	6.9000000057e+06
0.79686465        	6.9000000118e+06
0.80274442        	6.9000000210e+06
0.80918723        	6.9000000349e+06
0.81625692        	6.9000000547e+06
0.82408145        	6.9000000817e+06
0.83269258        	6.9000001163e+06
0.84185879        	6.9000001572e+06
0.8510553         	6.9000002021e+06
0.85980826        	6.9000002506e+06
0.86790459        	6.9000003039e+06
0.87530841        	6.9000003624e+06
0.88208273        	6.9000004258e+06
0.88832826        	6.9000004932e+06
0.89416528        	6.9000005639e+06
0.89972216        	6.9000006372e+06
0.90501227        	6.9000007125e+06
0.91015573        	6.9000007894e+06
0.91522626        	6.9000008681e+06
0.92027232        	6.9000009489e+06
0.92531923        	6.9000010324e+06
0.93038784        	6.9000011198e+06
0.93550243        	6.9000012134e+06
0.94069479        	6.9000013158e+06
0.94600296        	6.9000014292e+06
0.95147338        	6.9000015552e+06
0.95716314        	6.9000016944e+06
0.96314931        	6.9000018461e+06
0.96955252        	6.9000020086e+06
0.97651495        	6.9000021791e+06
0.98414977        	6.9000023526e+06
0.992413          	6.9000025203e+06
1.000885          	6.9000026706e+06
1.0097534         	6.9000028096e+06
1.0183554         	6.9000029370e+06
1.0264007         	6.9000030575e+06
1.033795          	6.9000031743e+06
1.0405863         	6.9000032879e+06
1.0468697         	6.9000033982e+06
1.052752          	6.9000035043e+06
1.0583263         	6.9000036057e+06
1.0636883         	6.9000037018e+06
1.0689127         	6.9000037921e+06
1.0740644         	6.9000038759e+06
1.0792002         	6.9000039525e+06
1.0843359         	6.9000040217e+06
1.0894717         	6.9000040837e+06
1.0946075         	6.9000041398e+06
1.0997432         	6.9000041916e+06
1.1051214         	6.9000042425e+06
1.1106862         	6.9000042929e+06
1.1164774         	6.9000043434e+06
1.1225607         	6.9000043939e+06
1.129046          	6.9000044444e+06
1.1360442         	6.9000044946e+06
1.1436091         	6.9000045434e+06
1.1516895         	6.9000045899e+06
1.1601404         	6.9000046337e+06
1.1686957         	6.9000046763e+06
1.1769874         	6.9000047209e+06
1.184772          	6.9000047709e+06
1.1919716         	6.9000048287e+06
1.1986772         	6.9000048954e+06
