# Solver information
# Time            	H2_solver         	H2_initial        	H2_final          	H2_iters          	H2_converged      	U_solver          	Ux_initial        	Ux_final          	Ux_iters          	Uy_initial        	Uy_final          	Uy_iters          	Uz_initial        	Uz_final          	Uz_iters          	U_converged       	k_solver          	k_initial         	k_final           	k_iters           	k_converged       	omega_solver      	omega_initial     	omega_final       	omega_iters       	omega_converged   	p_rgh_solver      	p_rgh_initial     	p_rgh_final       	p_rgh_iters       	p_rgh_converged   
1.200048e-05      	DILUPBiCGStab	1.0000000000e+00	1.9630244900e-04	1	true	smoothSolver	1.0000000000e+00	2.5505177720e-12	4	1.0000000000e+00	5.2037777170e-12	4	1.0000000000e+00	2.9811361300e-08	2	false	DILUPBiCGStab	1.0000000000e+00	7.2296284660e-10	2	true	DILUPBiCGStab	4.2790069580e-04	1.1200281520e-10	1	true	DICPCG	6.1671660000e-01	9.1962305870e-04	3	true
2.6401747e-05     	DILUPBiCGStab	7.1582277050e-02	1.2724369610e-05	1	true	smoothSolver	3.2527911980e-01	6.2466992570e-08	2	1.6582360030e-01	3.0913184010e-08	2	1.7739416990e-01	1.8663376010e-08	2	false	DILUPBiCGStab	5.5980465350e-01	4.0519001390e-10	2	true	DILUPBiCGStab	2.1282696050e-04	5.2638962870e-08	1	true	DICPCG	4.9382610490e-01	1.6032011600e-03	3	true
4.3683268e-05     	DILUPBiCGStab	4.3593245810e-02	8.8114532100e-06	1	true	smoothSolver	2.5136050170e-01	3.8068526810e-08	2	1.2027294820e-01	1.9541727160e-08	2	1.3223365040e-01	1.1574876450e-08	2	false	DILUPBiCGStab	3.3864440410e-01	8.9241796910e-08	1	true	DILUPBiCGStab	2.3380275040e-04	6.8874302180e-08	1	true	DICPCG	4.1834437130e-01	2.7850602790e-03	3	true
6.4421093e-05     	DILUPBiCGStab	3.3000123870e-02	8.5529923050e-06	1	true	smoothSolver	2.0855798930e-01	3.0465543660e-08	2	9.8247975010e-02	1.6233028800e-08	2	1.1044466560e-01	9.4553241830e-09	2	false	DILUPBiCGStab	2.5068914480e-01	9.3391977430e-08	1	true	DILUPBiCGStab	2.5296020240e-04	9.1085096330e-08	1	true	DICPCG	3.6948938730e-01	1.3582915600e-03	4	true
8.9305451e-05     	DILUPBiCGStab	2.7509108210e-02	9.8356203220e-06	1	true	smoothSolver	1.7769796360e-01	2.8662989250e-08	2	8.4770591090e-02	1.6102759080e-08	2	9.7396903950e-02	9.4582977650e-09	2	false	DILUPBiCGStab	2.0830886400e-01	6.3170439980e-10	2	true	DILUPBiCGStab	2.7912293160e-04	1.4654756670e-10	1	true	DICPCG	3.7430473310e-01	2.6072569380e-03	4	true
0.00011916519     	DILUPBiCGStab	2.4190217220e-02	1.2032267320e-05	1	true	smoothSolver	1.5201598800e-01	3.0841854090e-08	2	7.5374902420e-02	1.8411621380e-08	2	8.8651245010e-02	1.1252664460e-08	2	false	DILUPBiCGStab	1.8497087310e-01	9.3683213630e-10	2	true	DILUPBiCGStab	3.1226860840e-04	2.1469124090e-10	1	true	DICPCG	4.1734019530e-01	2.2113939800e-03	5	true
0.00015499046     	DILUPBiCGStab	2.1985317570e-02	1.5739571700e-05	1	true	smoothSolver	1.2755398520e-01	3.6616833050e-08	2	6.8209672110e-02	2.3148585580e-08	2	8.2248106980e-02	1.4969336240e-08	2	false	DILUPBiCGStab	1.6921596320e-01	1.4399638410e-09	2	true	DILUPBiCGStab	3.5296437340e-04	3.1793186910e-10	1	true	DICPCG	4.6151180270e-01	4.5690880560e-03	5	true
0.00019797152     	DILUPBiCGStab	2.0412820290e-02	2.0399281280e-05	1	true	smoothSolver	1.0218058440e-01	4.6923605210e-08	2	6.2646448420e-02	3.1626774910e-08	2	7.7392158100e-02	2.1773726290e-08	2	false	DILUPBiCGStab	1.5662252750e-01	2.2495207460e-09	2	true	DILUPBiCGStab	4.0136955990e-04	4.7625506970e-10	1	true	DICPCG	4.6756070360e-01	4.5649683730e-03	6	true
0.00024954879     	DILUPBiCGStab	1.9242266810e-02	2.6770360190e-05	1	true	smoothSolver	8.0575966040e-02	7.0099218390e-08	2	5.8146425370e-02	4.7194977590e-08	2	7.3501720370e-02	3.4995131030e-08	2	false	DILUPBiCGStab	1.4527361780e-01	3.5461762140e-09	2	true	DILUPBiCGStab	4.5509948360e-04	7.2202502730e-10	1	true	DICPCG	4.3014449410e-01	3.6336255460e-03	8	true
0.00031142873     	DILUPBiCGStab	1.8315959180e-02	3.6061606720e-05	1	true	smoothSolver	8.6250898880e-02	3.1972012620e-11	4	5.5439746270e-02	7.4706914860e-08	2	7.1072334340e-02	5.9870805870e-08	2	false	DILUPBiCGStab	1.3474567860e-01	5.6498279420e-09	2	true	DILUPBiCGStab	5.1656380770e-04	1.1123498620e-09	1	true	DICPCG	3.6570674240e-01	3.1757326990e-03	9	true
0.000385657       	DILUPBiCGStab	1.7543907800e-02	4.8437497090e-05	1	true	smoothSolver	1.3212761730e-01	8.9507282250e-11	4	5.3755447910e-02	3.3375482560e-11	4	6.9470090830e-02	2.8347694100e-11	4	false	DILUPBiCGStab	1.2566352690e-01	9.0768770630e-09	2	true	DILUPBiCGStab	5.8996893600e-04	1.7611403850e-09	1	true	DICPCG	2.9537523290e-01	1.7373383590e-03	12	true
0.00047475749     	DILUPBiCGStab	1.6836042870e-02	6.4550166030e-05	1	true	smoothSolver	2.1866679400e-01	3.3288253690e-10	4	5.2989189650e-02	7.5743678950e-11	4	6.8699803170e-02	7.2655777200e-11	4	false	DILUPBiCGStab	1.2212805890e-01	1.4890723320e-08	2	true	DILUPBiCGStab	6.7551631290e-04	2.8482386790e-09	1	true	DICPCG	2.9037519770e-01	2.3709060170e-03	14	true
0.00058165893     	DILUPBiCGStab	1.6182007580e-02	8.7763923180e-05	1	true	smoothSolver	2.8968243630e-01	7.9069245070e-10	4	5.0399881440e-02	1.7562823180e-10	4	6.6476791590e-02	1.9208916670e-10	4	false	DILUPBiCGStab	1.2435825790e-01	2.4592724640e-08	2	true	DILUPBiCGStab	7.8343509420e-04	4.5939766760e-09	1	true	DICPCG	3.0661294380e-01	2.5186279300e-03	17	true
0.00070994066     	DILUPBiCGStab	1.5565446540e-02	1.1876522690e-04	1	true	smoothSolver	2.5368677930e-01	2.5076162390e-09	4	4.4718355670e-02	6.9689705360e-10	4	6.2189555530e-02	7.4766395860e-10	4	false	DILUPBiCGStab	1.2455502150e-01	4.1181842330e-08	2	true	DILUPBiCGStab	8.8141363380e-04	7.5780869340e-09	1	true	DICPCG	4.1804031730e-01	3.6053171200e-03	19	true
0.00086387873     	DILUPBiCGStab	1.4969213500e-02	1.5770822070e-04	1	true	smoothSolver	1.7836377020e-01	3.6204188250e-09	4	3.6295334190e-02	1.3505970390e-09	4	5.6563504950e-02	1.5773426300e-09	4	false	DILUPBiCGStab	1.2239581000e-01	6.7898772260e-08	2	true	DILUPBiCGStab	9.7316579120e-04	1.2872082930e-08	1	true	DICPCG	4.8536194480e-01	4.1447876870e-03	23	true
0.0010484898      	DILUPBiCGStab	1.4364585670e-02	2.0195084290e-04	1	true	smoothSolver	1.1397362540e-01	6.1824136180e-09	4	2.5794285210e-02	1.9232774540e-09	4	5.0849266740e-02	2.3807683110e-09	4	false	DILUPBiCGStab	1.1814320560e-01	3.6969790720e-09	2	true	DILUPBiCGStab	1.0837196350e-03	2.2508482080e-08	1	true	DICPCG	4.8754660770e-01	4.4732819360e-03	26	true
0.0012698578      	DILUPBiCGStab	1.3772797020e-02	2.5017537720e-04	1	true	smoothSolver	6.3856158490e-02	1.4142463790e-08	4	1.5079468180e-02	4.7824625940e-09	4	4.7074347830e-02	4.5101962320e-09	4	false	DILUPBiCGStab	1.1332839720e-01	6.2705215660e-09	2	true	DILUPBiCGStab	1.2051586390e-03	4.1061885260e-08	1	true	DICPCG	4.5336933900e-01	4.2728056610e-03	30	true
0.0015352614      	DILUPBiCGStab	1.3225863160e-02	3.0477904100e-04	1	true	smoothSolver	6.2544552790e-02	3.5852399750e-08	4	1.8717635880e-02	1.5113015000e-08	4	5.3215760620e-02	1.0989832290e-08	4	false	DILUPBiCGStab	1.0833934450e-01	1.1375850470e-08	2	true	DILUPBiCGStab	1.3392833880e-03	7.6876967720e-08	1	true	DICPCG	3.7750126350e-01	3.4036693830e-03	36	true
0.0018539175      	DILUPBiCGStab	1.2794786620e-02	3.7210649110e-04	1	true	smoothSolver	9.9227689050e-02	9.6380489700e-08	4	3.5289202910e-02	4.7008375340e-08	4	6.7586916350e-02	3.1715240880e-08	4	false	DILUPBiCGStab	1.0462915220e-01	2.0512309190e-08	2	true	DILUPBiCGStab	1.4938031000e-03	4.4389057300e-09	2	true	DICPCG	2.9488803200e-01	2.9310529410e-03	42	true
0.0022358089      	DILUPBiCGStab	1.2478109190e-02	4.5623437170e-04	1	true	smoothSolver	1.2698171490e-01	1.9011331030e-09	6	4.8593059790e-02	1.1556213760e-09	6	8.0433911610e-02	8.8588904180e-08	4	false	DILUPBiCGStab	1.0212159600e-01	3.5586415000e-08	2	true	DILUPBiCGStab	1.6452264760e-03	7.6508680290e-09	2	true	DICPCG	3.2770622530e-01	2.9326769510e-03	48	true
0.0026822207      	DILUPBiCGStab	1.2019644430e-02	5.4335954770e-04	1	true	smoothSolver	1.2016259350e-01	4.2830916730e-09	6	5.2200334480e-02	3.3576365210e-09	6	8.8789671620e-02	2.0642192380e-09	6	false	DILUPBiCGStab	9.7554290600e-02	5.5625574620e-08	2	true	DILUPBiCGStab	1.7442801700e-03	1.2687591560e-08	2	true	DICPCG	3.7754707920e-01	3.5683764740e-03	53	true
0.0031917379      	DILUPBiCGStab	1.1467342330e-02	6.2848645620e-04	1	true	smoothSolver	9.1580712160e-02	6.1348917310e-09	6	4.4898655140e-02	5.8540604690e-09	6	9.1090423730e-02	4.4782660210e-09	6	false	DILUPBiCGStab	9.0952466330e-02	7.9486628240e-08	2	true	DILUPBiCGStab	1.8003117400e-03	1.9761325100e-08	2	true	DICPCG	3.8487848220e-01	3.7219646220e-03	58	true
0.0037645678      	DILUPBiCGStab	1.0884540910e-02	7.0284273960e-04	1	true	smoothSolver	5.9883458830e-02	6.4857071520e-09	6	3.1336686980e-02	7.1630997850e-09	6	8.9139332160e-02	7.9736569780e-09	6	false	DILUPBiCGStab	8.4291851590e-02	3.8978697490e-08	3	true	DILUPBiCGStab	1.8329062570e-03	2.7853253990e-08	2	true	DICPCG	3.6344391220e-01	3.3014677030e-03	65	true
0.0044018886      	DILUPBiCGStab	1.0282226550e-02	7.5640937290e-04	1	true	smoothSolver	5.4664383440e-02	1.3320004590e-08	6	2.0890996510e-02	8.4236466890e-09	6	8.5390862640e-02	1.2228259030e-08	6	false	DILUPBiCGStab	7.8163627220e-02	4.1897197560e-08	3	true	DILUPBiCGStab	1.8487311240e-03	3.6438077440e-08	2	true	DICPCG	3.1326721560e-01	2.9152627900e-03	70	true
0.0050392093      	DILUPBiCGStab	8.8085182890e-03	6.0884406590e-04	1	true	smoothSolver	7.3127872350e-02	2.0748358150e-08	6	2.1283457670e-02	9.7066503920e-09	6	7.4604933990e-02	9.8863450050e-09	6	false	DILUPBiCGStab	6.7321993310e-02	3.4725235670e-08	3	true	DILUPBiCGStab	1.7045195330e-03	3.2820463040e-08	2	true	DICPCG	2.4574696530e-01	2.2339197620e-03	72	true
0.0056765301      	DILUPBiCGStab	7.6305877050e-03	4.7791798830e-04	1	true	smoothSolver	8.8438424280e-02	2.7861940890e-08	6	2.5195882740e-02	1.3861096740e-08	6	6.3803141840e-02	7.2062982690e-09	6	false	DILUPBiCGStab	5.9379176110e-02	2.8498042090e-08	3	true	DILUPBiCGStab	1.5831636780e-03	3.0149377470e-08	2	true	DICPCG	2.0853277170e-01	1.9804274310e-03	74	true
0.0063138508      	DILUPBiCGStab	6.6972888760e-03	3.7020539560e-04	1	true	smoothSolver	8.7636286130e-02	2.7876349060e-08	6	2.5191298030e-02	1.4835622090e-08	6	5.5977503680e-02	5.3546345390e-09	6	false	DILUPBiCGStab	5.3156562970e-02	2.4341340420e-08	3	true	DILUPBiCGStab	1.4840968740e-03	2.7969058050e-08	2	true	DICPCG	1.8870575990e-01	1.8758559720e-03	77	true
0.0069511716      	DILUPBiCGStab	5.9698376940e-03	2.9142203070e-04	1	true	smoothSolver	7.0644612010e-02	1.9983471720e-08	6	2.1332271890e-02	1.2157327260e-08	6	5.1696987140e-02	5.6075596250e-09	6	false	DILUPBiCGStab	4.8189682390e-02	2.1030402930e-08	3	true	DILUPBiCGStab	1.4034165050e-03	2.6206473150e-08	2	true	DICPCG	1.6911964030e-01	1.6472312670e-03	80	true
0.0075884923      	DILUPBiCGStab	5.3972210570e-03	2.3282031240e-04	1	true	smoothSolver	5.1966122720e-02	1.2781205610e-08	6	1.6042137340e-02	7.6222734830e-09	6	4.8480521770e-02	6.4275631290e-09	6	false	DILUPBiCGStab	4.4190113080e-02	9.3987854280e-08	2	true	DILUPBiCGStab	1.3348172360e-03	2.4832168680e-08	2	true	DICPCG	1.5015892190e-01	1.4529257160e-03	82	true
0.008225813       	DILUPBiCGStab	4.9398898830e-03	1.8988512810e-04	1	true	smoothSolver	3.9510879590e-02	1.1878968230e-08	6	1.1429929400e-02	4.8566307600e-09	6	4.6078886760e-02	8.0122076410e-09	6	false	DILUPBiCGStab	4.0912737620e-02	8.5506331400e-08	2	true	DILUPBiCGStab	1.2752502680e-03	2.3573112010e-08	2	true	DICPCG	1.3074728610e-01	1.3002529520e-03	83	true
0.0088631338      	DILUPBiCGStab	4.5685727950e-03	1.5824536330e-04	1	true	smoothSolver	3.4153356320e-02	1.0583044700e-08	6	9.4026694070e-03	3.9371476600e-09	6	4.4129108380e-02	1.0126041200e-08	6	false	DILUPBiCGStab	3.8157860370e-02	7.7881183210e-08	2	true	DILUPBiCGStab	1.2211307350e-03	2.2619805840e-08	2	true	DICPCG	1.1247444290e-01	1.0794044310e-03	87	true
0.0095004545      	DILUPBiCGStab	4.2623382870e-03	1.3397505880e-04	1	true	smoothSolver	3.2504288080e-02	9.2496977000e-09	6	9.9573543320e-03	5.1866694780e-09	6	4.2250546680e-02	1.2534683770e-08	6	false	DILUPBiCGStab	3.5832037350e-02	7.1219799850e-08	2	true	DILUPBiCGStab	1.1695639150e-03	2.2175525090e-08	2	true	DICPCG	9.7145742530e-02	9.0358576440e-04	88	true
0.010137775       	DILUPBiCGStab	4.0083351270e-03	1.1607111250e-04	1	true	smoothSolver	3.0983470360e-02	8.6129095860e-09	6	1.0570686320e-02	6.0651674820e-09	6	4.0289939040e-02	1.5084031810e-08	6	false	DILUPBiCGStab	3.3864329920e-02	6.5363402250e-08	2	true	DILUPBiCGStab	1.1236922340e-03	2.1519317990e-08	2	true	DICPCG	8.5113159780e-02	8.3887832860e-04	88	true
0.010775096       	DILUPBiCGStab	3.7964229840e-03	1.0305371270e-04	1	true	smoothSolver	2.8025847440e-02	7.3972421410e-09	6	1.0004254410e-02	5.5020653900e-09	6	3.8265233430e-02	1.7606954430e-08	6	false	DILUPBiCGStab	3.2234527970e-02	6.0274640960e-08	2	true	DILUPBiCGStab	1.0815215240e-03	2.1077612930e-08	2	true	DICPCG	7.5925362830e-02	6.8237725790e-04	89	true
0.011412417       	DILUPBiCGStab	3.6163857440e-03	9.3261564980e-05	1	true	smoothSolver	2.4814184040e-02	6.2421862360e-09	6	8.4849096630e-03	3.8304391690e-09	6	3.6365177430e-02	2.0103238390e-08	6	false	DILUPBiCGStab	3.0900578910e-02	5.6051341720e-08	2	true	DILUPBiCGStab	1.0406153750e-03	2.1590422820e-08	2	true	DICPCG	6.8471699840e-02	6.4304424720e-04	88	true
0.012049737       	DILUPBiCGStab	3.4616270370e-03	8.5346974570e-05	1	true	smoothSolver	2.2753982120e-02	7.2927425730e-09	6	6.7123992780e-03	2.0714807110e-09	6	3.4537114720e-02	2.2462670970e-08	6	false	DILUPBiCGStab	2.9800368570e-02	5.2739189160e-08	2	true	DILUPBiCGStab	1.0043875990e-03	2.1636687760e-08	2	true	DICPCG	6.2235140780e-02	5.4694751400e-04	86	true
0.012687058       	DILUPBiCGStab	3.3283336040e-03	7.9037347870e-05	1	true	smoothSolver	2.1242876400e-02	8.0033619060e-09	6	5.5958360830e-03	1.6391966610e-09	6	3.2727217130e-02	2.4624961120e-08	6	false	DILUPBiCGStab	2.8845058990e-02	5.0228731960e-08	2	true	DILUPBiCGStab	9.7190872160e-04	2.1819092110e-08	2	true	DICPCG	5.7057058110e-02	5.4171901680e-04	84	true
0.013324379       	DILUPBiCGStab	3.2132694470e-03	7.3862991030e-05	1	true	smoothSolver	2.1215889540e-02	8.4290163690e-09	6	5.4882685020e-03	3.0347744070e-09	6	3.0900229990e-02	2.6362775880e-08	6	false	DILUPBiCGStab	2.8024522250e-02	4.8617870580e-08	2	true	DILUPBiCGStab	9.4129316470e-04	2.2941787850e-08	2	true	DICPCG	5.2897025020e-02	5.1436317470e-04	82	true
0.0139617         	DILUPBiCGStab	3.1136149010e-03	6.9652102460e-05	1	true	smoothSolver	2.2455546720e-02	9.4874672320e-09	6	5.4012120370e-03	4.2637214890e-09	6	2.9083223510e-02	2.7603435050e-08	6	false	DILUPBiCGStab	2.7317191060e-02	4.8008430040e-08	2	true	DILUPBiCGStab	9.1456931720e-04	2.3927956050e-08	2	true	DICPCG	4.9664102690e-02	4.6822556030e-04	81	true
0.01459902        	DILUPBiCGStab	3.0274647940e-03	6.6253683140e-05	1	true	smoothSolver	2.3066818690e-02	9.7556863580e-09	6	5.2245614070e-03	4.6578726240e-09	6	2.7404537430e-02	2.8310594700e-08	6	false	DILUPBiCGStab	2.6686724060e-02	4.8136802820e-08	2	true	DILUPBiCGStab	8.9003578290e-04	2.5073485840e-08	2	true	DICPCG	4.7179884710e-02	4.1364798020e-04	80	true
0.015236341       	DILUPBiCGStab	2.9524787060e-03	6.3083690280e-05	1	true	smoothSolver	2.2338611180e-02	8.9542981910e-09	6	5.3716281660e-03	4.3616464260e-09	6	2.6090321580e-02	2.8514896450e-08	6	false	DILUPBiCGStab	2.6127616730e-02	4.9051296620e-08	2	true	DILUPBiCGStab	8.6699493700e-04	2.7158632130e-08	2	true	DICPCG	4.5117553140e-02	4.4736673750e-04	78	true
0.015873662       	DILUPBiCGStab	2.8866496690e-03	6.0365426440e-05	1	true	smoothSolver	2.0611862540e-02	7.5658943580e-09	6	5.5913455480e-03	3.4853734730e-09	6	2.5026720410e-02	2.8249649640e-08	6	false	DILUPBiCGStab	2.5637660960e-02	5.0672960670e-08	2	true	DILUPBiCGStab	8.4631475100e-04	2.9909234370e-08	2	true	DICPCG	4.3035336030e-02	4.2446279460e-04	77	true
0.016510983       	DILUPBiCGStab	2.8283773770e-03	5.8088543470e-05	1	true	smoothSolver	1.8482860510e-02	5.8522850920e-09	6	5.7102406570e-03	2.3733990050e-09	6	2.4271350580e-02	2.7475086150e-08	6	false	DILUPBiCGStab	2.5193793880e-02	5.2841586370e-08	2	true	DILUPBiCGStab	8.2753560660e-04	3.3220110220e-08	2	true	DICPCG	4.0794615860e-02	4.0141462550e-04	78	true
0.017148303       	DILUPBiCGStab	2.7764159350e-03	5.6128952400e-05	1	true	smoothSolver	1.6601045840e-02	4.3306934760e-09	6	5.9628059590e-03	1.7513175640e-09	6	2.3779128870e-02	2.6257159610e-08	6	false	DILUPBiCGStab	2.4783659300e-02	5.5366599040e-08	2	true	DILUPBiCGStab	8.0956434730e-04	3.7663872340e-08	2	true	DICPCG	3.8597172500e-02	3.6268117720e-04	80	true
0.017785624       	DILUPBiCGStab	2.7296046040e-03	5.4435622870e-05	1	true	smoothSolver	1.5143919460e-02	3.6966969160e-09	6	6.3362794020e-03	1.8208281430e-09	6	2.3511942010e-02	2.4639385540e-08	6	false	DILUPBiCGStab	2.4384990000e-02	5.8052245160e-08	2	true	DILUPBiCGStab	7.9302066780e-04	4.0792750310e-08	2	true	DICPCG	3.6734494650e-02	3.5924481810e-04	85	true
0.018422945       	DILUPBiCGStab	2.6867495050e-03	5.2832404750e-05	1	true	smoothSolver	1.3918267700e-02	3.5590032720e-09	6	6.6515914260e-03	2.2845311310e-09	6	2.3339416300e-02	2.2746217010e-08	6	false	DILUPBiCGStab	2.3982953950e-02	6.0881304120e-08	2	true	DILUPBiCGStab	7.7699393750e-04	4.1305981010e-08	2	true	DICPCG	3.5320542480e-02	3.1423000530e-04	87	true
0.019060266       	DILUPBiCGStab	2.6470698320e-03	5.1497629010e-05	1	true	smoothSolver	1.2736888260e-02	3.4208389880e-09	6	6.6968416890e-03	2.4201132450e-09	6	2.3190732420e-02	2.0701061450e-08	6	false	DILUPBiCGStab	2.3572986370e-02	6.3722445640e-08	2	true	DILUPBiCGStab	7.6011473560e-04	5.0585329630e-08	2	true	DICPCG	3.4357548430e-02	3.3864925330e-04	85	true
0.019697586       	DILUPBiCGStab	2.6093531250e-03	5.0312624630e-05	1	true	smoothSolver	1.1621983920e-02	3.1030121500e-09	6	6.4990644000e-03	2.1438290600e-09	6	2.3071119380e-02	1.8568267590e-08	6	false	DILUPBiCGStab	2.3173961330e-02	6.6492457620e-08	2	true	DILUPBiCGStab	7.4286452920e-04	7.0561287810e-08	2	true	DICPCG	3.3633382490e-02	3.1371996940e-04	85	true
0.020334907       	DILUPBiCGStab	2.5728082300e-03	4.9288549660e-05	1	true	smoothSolver	1.0745393930e-02	2.7988096040e-09	6	6.2300124460e-03	1.6568555960e-09	6	2.2996173720e-02	1.6590203280e-08	6	false	DILUPBiCGStab	2.2799434320e-02	6.9138137890e-08	2	true	DILUPBiCGStab	7.2646682000e-04	8.0849364280e-08	2	true	DICPCG	3.2991282220e-02	3.2966769500e-04	83	true
0.020972228       	DILUPBiCGStab	2.5367754930e-03	4.8241320990e-05	1	true	smoothSolver	1.0295719810e-02	2.8316865330e-09	6	6.0944268400e-03	9.0897722950e-08	4	2.2987791570e-02	1.4685985550e-08	6	false	DILUPBiCGStab	2.2442558770e-02	7.1550236430e-08	2	true	DILUPBiCGStab	7.1028856690e-04	8.5452283900e-08	2	true	DICPCG	3.2424848720e-02	3.1123811110e-04	83	true
0.021609549       	DILUPBiCGStab	2.5007367900e-03	4.7202946210e-05	1	true	smoothSolver	1.0050611990e-02	3.0680735380e-09	6	6.1197959470e-03	8.6028734980e-08	4	2.3019947250e-02	1.2932369440e-08	6	false	DILUPBiCGStab	2.2105002150e-02	7.3669276270e-08	2	true	DILUPBiCGStab	6.9416435830e-04	9.3833403870e-08	2	true	DICPCG	3.2026706070e-02	3.1332749840e-04	82	true
0.022246869       	DILUPBiCGStab	2.4642596200e-03	4.6125210380e-05	1	true	smoothSolver	9.8246532040e-03	3.1881458990e-09	6	6.1666109220e-03	9.0209675800e-08	4	2.3025979080e-02	1.1102375970e-08	6	false	DILUPBiCGStab	2.1779705470e-02	7.5428213990e-08	2	true	DILUPBiCGStab	6.7779250140e-04	9.6773792820e-08	2	true	DICPCG	3.1842954130e-02	3.0842662900e-04	80	true
0.02288419        	DILUPBiCGStab	2.4271663050e-03	4.4993064170e-05	1	true	smoothSolver	9.6066495110e-03	3.1224811600e-09	6	6.1578889340e-03	9.7141011970e-08	4	2.3016154780e-02	9.1166456010e-09	6	false	DILUPBiCGStab	2.1461829280e-02	7.6802867630e-08	2	true	DILUPBiCGStab	6.6132859330e-04	3.7838387120e-09	2	true	DICPCG	3.1840655660e-02	3.1756819990e-04	75	true
0.023521511       	DILUPBiCGStab	2.3893809360e-03	4.3822981030e-05	1	true	smoothSolver	9.4154529460e-03	2.9303479390e-09	6	6.0205069940e-03	9.5442176880e-08	4	2.2986161500e-02	7.2707171210e-09	6	false	DILUPBiCGStab	2.1155562390e-02	7.7818131880e-08	2	true	DILUPBiCGStab	6.4487142230e-04	4.3887748730e-09	2	true	DICPCG	3.1913372780e-02	2.9229671930e-04	71	true
0.024158832       	DILUPBiCGStab	2.3510990930e-03	4.2677899360e-05	1	true	smoothSolver	9.2512604150e-03	2.7035640530e-09	6	5.7502025860e-03	8.5700475850e-08	4	2.2943039300e-02	5.5419112670e-09	6	false	DILUPBiCGStab	2.0866637810e-02	7.8488950650e-08	2	true	DILUPBiCGStab	6.2889840360e-04	4.7899406300e-09	2	true	DICPCG	3.1918259240e-02	3.0297441220e-04	69	true
0.024796152       	DILUPBiCGStab	2.3126517080e-03	4.1465359520e-05	1	true	smoothSolver	9.1693176690e-03	2.4672535650e-09	6	5.3751958340e-03	7.1841623470e-08	4	2.2936121090e-02	4.1637168260e-09	6	false	DILUPBiCGStab	2.0596537880e-02	7.8842357410e-08	2	true	DILUPBiCGStab	6.1374969470e-04	4.6248127390e-09	2	true	DICPCG	3.1820862030e-02	3.0078118550e-04	67	true
0.025433473       	DILUPBiCGStab	2.2745514570e-03	4.0275801010e-05	1	true	smoothSolver	9.1596740420e-03	2.3485714710e-09	6	4.9397551320e-03	5.8596737240e-08	4	2.2995254630e-02	3.3294498400e-09	6	false	DILUPBiCGStab	2.0342142110e-02	7.8924331600e-08	2	true	DILUPBiCGStab	5.9923460210e-04	4.0190626150e-09	2	true	DICPCG	3.1649893290e-02	3.0210774900e-04	67	true
0.026070794       	DILUPBiCGStab	2.2372555050e-03	3.9127048580e-05	1	true	smoothSolver	9.1426299930e-03	2.4245907020e-09	6	4.6435146260e-03	5.2507677270e-08	4	2.3154495970e-02	2.7769707630e-09	6	false	DILUPBiCGStab	2.0098908930e-02	7.8780640960e-08	2	true	DILUPBiCGStab	5.8524013400e-04	8.5724562370e-08	2	true	DICPCG	3.1407387360e-02	3.1119189910e-04	66	true
0.026708115       	DILUPBiCGStab	2.2012800950e-03	3.8064740370e-05	1	true	smoothSolver	9.0448182410e-03	2.4574453650e-09	6	4.4135028600e-03	5.1772491740e-08	4	2.3411194580e-02	2.7834787970e-09	6	false	DILUPBiCGStab	1.9861536040e-02	7.8472450480e-08	2	true	DILUPBiCGStab	5.7143375990e-04	7.9763576290e-08	2	true	DICPCG	3.1213370420e-02	2.9875504810e-04	65	true
0.027345435       	DILUPBiCGStab	2.1670984730e-03	3.7063443050e-05	1	true	smoothSolver	8.8842006070e-03	2.4224279580e-09	6	4.0940077580e-03	5.1898315060e-08	4	2.3702972130e-02	2.8846707760e-09	6	false	DILUPBiCGStab	1.9629794630e-02	7.8054368620e-08	2	true	DILUPBiCGStab	5.5790717460e-04	8.9472020990e-08	2	true	DICPCG	3.1060148410e-02	3.0328392520e-04	64	true
0.027982756       	DILUPBiCGStab	2.1351404300e-03	3.6150135840e-05	1	true	smoothSolver	8.7106896580e-03	2.3424704390e-09	6	3.6737249110e-03	5.2323969120e-08	4	2.4019012040e-02	3.2925494670e-09	6	false	DILUPBiCGStab	1.9406488420e-02	7.7558186810e-08	2	true	DILUPBiCGStab	5.4501953830e-04	9.8269335680e-08	2	true	DICPCG	3.0877919750e-02	2.9505871000e-04	63	true
0.028620077       	DILUPBiCGStab	2.1057524130e-03	3.5297911060e-05	1	true	smoothSolver	8.5885638210e-03	2.2995987970e-09	6	3.1880270700e-03	5.3997274070e-08	4	2.4362196480e-02	3.8620364680e-09	6	false	DILUPBiCGStab	1.9190892440e-02	7.7053058660e-08	2	true	DILUPBiCGStab	5.3326339360e-04	9.3735684370e-08	2	true	DICPCG	3.0596117850e-02	3.0047162340e-04	64	true
0.029257398       	DILUPBiCGStab	2.0791442640e-03	3.4528209580e-05	1	true	smoothSolver	8.5567024640e-03	2.3332692280e-09	6	2.6907628760e-03	5.6872399270e-08	4	2.4733051500e-02	4.2300881050e-09	6	false	DILUPBiCGStab	1.8982029320e-02	7.6559618810e-08	2	true	DILUPBiCGStab	5.2238682890e-04	8.6461627970e-08	2	true	DICPCG	3.0285888110e-02	3.0248393120e-04	65	true
0.029894718       	DILUPBiCGStab	2.0554574120e-03	3.3920292630e-05	1	true	smoothSolver	8.5364667750e-03	2.4637234520e-09	6	2.3597447100e-03	6.0391510090e-08	4	2.5148667290e-02	4.3674591250e-09	6	false	DILUPBiCGStab	1.8778929990e-02	7.6133199240e-08	2	true	DILUPBiCGStab	5.1202197200e-04	8.3138266230e-08	2	true	DICPCG	3.0032867900e-02	2.9830535000e-04	69	true
0.030532039       	DILUPBiCGStab	2.0347056930e-03	3.3438591580e-05	1	true	smoothSolver	8.5079403700e-03	2.6536461630e-09	6	2.7001305540e-03	6.4944924600e-08	4	2.5752558470e-02	4.5232075600e-09	6	false	DILUPBiCGStab	1.8580718820e-02	7.5811385170e-08	2	true	DILUPBiCGStab	5.0212746570e-04	8.1763180810e-08	2	true	DICPCG	2.9911799750e-02	2.8447246240e-04	70	true
0.03116936        	DILUPBiCGStab	2.0167299050e-03	3.3078457800e-05	1	true	smoothSolver	8.4751784610e-03	2.8501197420e-09	6	3.2168126210e-03	7.0545786230e-08	4	2.6537734630e-02	4.6040804820e-09	6	false	DILUPBiCGStab	1.8388775810e-02	7.5595157790e-08	2	true	DILUPBiCGStab	4.9272076800e-04	8.3466541350e-08	2	true	DICPCG	2.9877185370e-02	2.9876927970e-04	67	true
0.031806681       	DILUPBiCGStab	2.0012991830e-03	3.2808896740e-05	1	true	smoothSolver	8.4501684060e-03	3.0348160730e-09	6	3.7038649600e-03	7.6809033910e-08	4	2.7408842260e-02	4.6320183770e-09	6	false	DILUPBiCGStab	1.8207372590e-02	7.5504490890e-08	2	true	DILUPBiCGStab	4.8374116440e-04	8.7507862230e-08	2	true	DICPCG	2.9789044180e-02	2.8714473410e-04	67	true
0.032444001       	DILUPBiCGStab	1.9881404370e-03	3.2596218730e-05	1	true	smoothSolver	8.4485440700e-03	3.2088009750e-09	6	4.1406179200e-03	8.3263812200e-08	4	2.8373440730e-02	4.8464921160e-09	6	false	DILUPBiCGStab	1.8040585540e-02	7.5506430870e-08	2	true	DILUPBiCGStab	4.7534523110e-04	8.8352477470e-08	2	true	DICPCG	2.9588144690e-02	2.8555104390e-04	67	true
0.033081322       	DILUPBiCGStab	1.9769182530e-03	3.2452834820e-05	1	true	smoothSolver	8.5072718020e-03	3.3773122030e-09	6	4.5230936900e-03	8.9678237330e-08	4	2.9437639980e-02	5.0546351490e-09	6	false	DILUPBiCGStab	1.7888232750e-02	7.5613075650e-08	2	true	DILUPBiCGStab	4.6756567030e-04	8.8798495670e-08	2	true	DICPCG	2.9204583970e-02	2.7508282310e-04	70	true
0.033718643       	DILUPBiCGStab	1.9672421510e-03	3.2359132490e-05	1	true	smoothSolver	8.5583632440e-03	3.5457492860e-09	6	4.8412928580e-03	9.6028582440e-08	4	3.0581535340e-02	5.1822197520e-09	6	false	DILUPBiCGStab	1.7749818480e-02	7.5743758070e-08	2	true	DILUPBiCGStab	4.6022600730e-04	9.7578895540e-08	2	true	DICPCG	2.8678661570e-02	2.7585671370e-04	70	true
0.034355963       	DILUPBiCGStab	1.9587211200e-03	3.2315040500e-05	1	true	smoothSolver	8.5908492110e-03	3.7240404730e-09	6	5.0944242950e-03	1.7068097710e-09	6	3.1847092970e-02	5.2230832160e-09	6	false	DILUPBiCGStab	1.7623095870e-02	7.5942089280e-08	2	true	DILUPBiCGStab	4.5322667180e-04	4.7332321820e-09	2	true	DICPCG	2.8053341800e-02	2.7049762550e-04	71	true
0.034993284       	DILUPBiCGStab	1.9509131810e-03	3.2299745890e-05	1	true	smoothSolver	8.6098948430e-03	3.9235198130e-09	6	5.2866478790e-03	1.8293476000e-09	6	3.3256724560e-02	5.1799744600e-09	6	false	DILUPBiCGStab	1.7513319220e-02	7.6203547500e-08	2	true	DILUPBiCGStab	4.4652466590e-04	5.3553062440e-09	2	true	DICPCG	2.7371453840e-02	2.6107094580e-04	71	true
0.035630605       	DILUPBiCGStab	1.9434314990e-03	3.2295355590e-05	1	true	smoothSolver	8.6373491030e-03	4.1496686590e-09	6	5.4255243380e-03	1.9627998450e-09	6	3.4822409430e-02	5.0593202530e-09	6	false	DILUPBiCGStab	1.7429744220e-02	7.6445250970e-08	2	true	DILUPBiCGStab	4.4007131400e-04	6.1450710700e-09	2	true	DICPCG	2.6558313360e-02	2.5505258200e-04	71	true
0.036267926       	DILUPBiCGStab	1.9359356630e-03	3.2296724640e-05	1	true	smoothSolver	8.6920175140e-03	4.4068247310e-09	6	5.5217148330e-03	2.1127760520e-09	6	3.6562561030e-02	4.8712821390e-09	6	false	DILUPBiCGStab	1.7372002210e-02	7.6616615920e-08	2	true	DILUPBiCGStab	4.3403814990e-04	6.5810849340e-09	2	true	DICPCG	2.5535177020e-02	2.4591665130e-04	73	true
0.036905246       	DILUPBiCGStab	1.9281150120e-03	3.2282719310e-05	1	true	smoothSolver	8.8077340130e-03	4.6816705550e-09	6	5.5877379970e-03	2.2795200390e-09	6	3.8542809130e-02	4.6656064940e-09	6	false	DILUPBiCGStab	1.7322964990e-02	7.6762947950e-08	2	true	DILUPBiCGStab	4.2857429830e-04	6.1927276930e-09	2	true	DICPCG	2.4293577600e-02	2.3285045480e-04	74	true
0.037542567       	DILUPBiCGStab	1.9197460220e-03	3.2236414120e-05	1	true	smoothSolver	8.9690191520e-03	4.9731902890e-09	6	5.6276125570e-03	2.4649233970e-09	6	4.0843888880e-02	4.5945403040e-09	6	false	DILUPBiCGStab	1.7282358620e-02	7.6871162820e-08	2	true	DILUPBiCGStab	4.2352095350e-04	6.1509126730e-09	2	true	DICPCG	2.2848305260e-02	2.2411218350e-04	75	true
0.038179888       	DILUPBiCGStab	1.9106686320e-03	3.2146436250e-05	1	true	smoothSolver	9.1533237880e-03	5.2745806160e-09	6	5.6441648960e-03	2.6657644060e-09	6	4.3386078980e-02	4.6065745480e-09	6	false	DILUPBiCGStab	1.7249424530e-02	7.6858115050e-08	2	true	DILUPBiCGStab	4.1885027210e-04	6.5256806770e-09	2	true	DICPCG	2.1275720320e-02	2.0029175610e-04	77	true
0.038817209       	DILUPBiCGStab	1.9007475770e-03	3.1997151880e-05	1	true	smoothSolver	9.3318266360e-03	5.5748457490e-09	6	5.6421839540e-03	2.8757311410e-09	6	4.6104537830e-02	4.6834429650e-09	6	false	DILUPBiCGStab	1.7224147850e-02	7.6821852670e-08	2	true	DILUPBiCGStab	4.1459208560e-04	7.6973191120e-09	2	true	DICPCG	1.9640036680e-02	1.8858233890e-04	77	true
0.039454529       	DILUPBiCGStab	1.8899103230e-03	3.1803710740e-05	1	true	smoothSolver	9.4841299310e-03	5.8612593850e-09	6	5.6244673490e-03	3.0844363430e-09	6	4.8962453060e-02	4.7666433470e-09	6	false	DILUPBiCGStab	1.7206534040e-02	7.6651615410e-08	2	true	DILUPBiCGStab	4.1071118600e-04	1.0392048080e-08	2	true	DICPCG	1.7932766250e-02	1.6868329820e-04	77	true
0.04009185        	DILUPBiCGStab	1.8781440600e-03	3.1610129850e-05	1	true	smoothSolver	9.6007872450e-03	6.1240205600e-09	6	5.5931895190e-03	3.2831807710e-09	6	5.1871293370e-02	4.8587640770e-09	6	false	DILUPBiCGStab	1.7199577290e-02	7.6472616190e-08	2	true	DILUPBiCGStab	4.0717019440e-04	1.6023452440e-08	2	true	DICPCG	1.6143977620e-02	1.5981256470e-04	76	true
0.040729171       	DILUPBiCGStab	1.8654866110e-03	3.1391429390e-05	1	true	smoothSolver	9.6780928030e-03	6.3511725800e-09	6	5.5503768670e-03	3.4657487390e-09	6	5.4384218860e-02	4.9555977890e-09	6	false	DILUPBiCGStab	1.7201691880e-02	7.6349187080e-08	2	true	DILUPBiCGStab	4.0405994200e-04	1.9580530470e-08	2	true	DICPCG	1.4299853710e-02	1.4009289360e-04	76	true