# Region type :   patch main_inlet
# Faces           : 356
# Area            : 8.2961564767e-02
# Scale factor    : 1.0000000000e+00
# Time            	sum(phi)
0.0020653465      	-3.3861120135e+01
0.0073012514      	-3.3866146914e+01
0.010943332       	-3.3864979270e+01
0.012670867       	-3.3865148379e+01
0.014348007       	-3.3865068899e+01
0.016203326       	-3.3865383905e+01
0.018095413       	-3.3871590499e+01
0.019981085       	-3.3888809815e+01
0.02186162        	-3.3931046490e+01
0.023723961       	-3.4003181646e+01
0.025736753       	-3.4065666273e+01
0.028669078       	-3.4057742036e+01
0.032360246       	-3.4046404617e+01
0.036343881       	-3.4042096439e+01
0.040658044       	-3.3991143333e+01
0.044083949       	-3.3957694589e+01
0.047233391       	-3.3958180759e+01
0.05006597        	-3.3953660170e+01
0.052920849       	-3.3957765078e+01
0.055756904       	-3.3971111045e+01
0.058552021       	-3.3977777164e+01
0.061105499       	-3.3984934110e+01
0.063425927       	-3.3988331059e+01
0.065583113       	-3.3984890252e+01
0.067762626       	-3.3979813117e+01
0.070196101       	-3.3969216822e+01
0.072905056       	-3.3943385706e+01
0.075919429       	-3.3875608248e+01
0.079000205       	-3.3746615963e+01
0.081968062       	-3.3596890802e+01
0.08475945        	-3.3484841131e+01
0.087416991       	-3.3434104411e+01
0.08992764        	-3.3428418454e+01
0.092269822       	-3.3440315787e+01
0.094473832       	-3.3453557879e+01
0.096640957       	-3.3461700468e+01
0.098867185       	-3.3456946537e+01
0.10124781        	-3.3433024786e+01
0.1039423         	-3.3391252670e+01
0.10675737        	-3.3350180602e+01
0.10946559        	-3.3325223730e+01
0.11202011        	-3.3313985514e+01
0.1144744         	-3.3309896271e+01
0.11687669        	-3.3312608749e+01
0.11925738        	-3.3326354588e+01
0.12164547        	-3.3348862250e+01
0.12407184        	-3.3369454734e+01
0.12655624        	-3.3378569907e+01
0.12909434        	-3.3375606668e+01
0.13166471        	-3.3366146309e+01
0.13426151        	-3.3355231629e+01
0.13689453        	-3.3346069216e+01
0.13955476        	-3.3340947912e+01
0.1422098         	-3.3340151429e+01
0.14483584        	-3.3343202330e+01
0.14743747        	-3.3351516688e+01
0.15001093        	-3.3369659484e+01
0.15251648        	-3.3404564367e+01
0.15491685        	-3.3461528829e+01
0.15722572        	-3.3540102563e+01
0.15949885        	-3.3632617697e+01
0.16181012        	-3.3725353950e+01
0.16422451        	-3.3802167537e+01
0.16678009        	-3.3850668913e+01
0.1694851         	-3.3868495507e+01
0.17232593        	-3.3864543549e+01
0.17524802        	-3.3856091036e+01
0.17812168        	-3.3859131038e+01
0.18082992        	-3.3877235717e+01
0.18336905        	-3.3903441992e+01
0.18581176        	-3.3930029135e+01
0.18824423        	-3.3952974432e+01
0.19073566        	-3.3970682109e+01
0.19331779        	-3.3981677550e+01
0.19598194        	-3.3983923206e+01
0.19866065        	-3.3977106606e+01
0.20133706        	-3.3965388760e+01
0.2039778         	-3.3955793453e+01
0.20657991        	-3.3953127178e+01
0.20915533        	-3.3957359672e+01
0.21170759        	-3.3965083355e+01
0.21423392        	-3.3972266873e+01
0.21673521        	-3.3976000373e+01
0.21922237        	-3.3975400929e+01
0.22171307        	-3.3971034767e+01
0.22422242        	-3.3963103592e+01
0.22676387        	-3.3949392346e+01
0.22935613        	-3.3924298488e+01
0.23202683        	-3.3880223725e+01
0.23479603        	-3.3811860009e+01
0.23764252        	-3.3723036557e+01
0.24048502        	-3.3630218626e+01
0.24322242        	-3.3553483243e+01
0.24580956        	-3.3502732866e+01
0.24826092        	-3.3476289642e+01
0.25062255        	-3.3466833708e+01
0.25294417        	-3.3465738657e+01
0.25526868        	-3.3465143511e+01
0.25763287        	-3.3459417112e+01
0.26006165        	-3.3446078702e+01
0.26256459        	-3.3426121350e+01
0.26513015        	-3.3403405991e+01
0.26772271        	-3.3382629830e+01
0.27029876        	-3.3366988316e+01
0.27282476        	-3.3357403162e+01
0.27529916        	-3.3353074472e+01
0.27774702        	-3.3352224285e+01
0.28020022        	-3.3352492860e+01
0.28268205        	-3.3351507063e+01
0.28519724        	-3.3347849120e+01
0.28772762        	-3.3341803722e+01
0.29025801        	-3.3335116189e+01
0.2928137         	-3.3330018960e+01
0.29538024        	-3.3328628458e+01
0.29794677        	-3.3332212152e+01
0.30051414        	-3.3341361126e+01
0.30307251        	-3.3357003816e+01
0.30559506        	-3.3381127678e+01
0.30806755        	-3.3416596347e+01
0.31049069        	-3.3465512534e+01
0.31287991        	-3.3527164103e+01
0.31525781        	-3.3597030980e+01
0.31765132        	-3.3667593099e+01
0.32008825        	-3.3730545157e+01
0.32259674        	-3.3779289711e+01
0.32520055        	-3.3810572053e+01
0.3279076         	-3.3825931355e+01
0.33068662        	-3.3832158985e+01
0.33346811        	-3.3837738787e+01
0.33617946        	-3.3847829900e+01
0.33879389        	-3.3863351836e+01
0.34133513        	-3.3883052962e+01
0.34384614        	-3.3904645973e+01
0.34636786        	-3.3925096666e+01
0.34892273        	-3.3941657322e+01
0.35151149        	-3.3952904007e+01
0.35412203        	-3.3959267162e+01
0.35674184        	-3.3962770551e+01
0.35936188        	-3.3965776271e+01
0.36197178        	-3.3969826182e+01
0.36456243        	-3.3975083497e+01
0.3671287         	-3.3980343832e+01
0.3696732         	-3.3983672942e+01
0.37221101        	-3.3983306551e+01
0.37474881        	-3.3978200210e+01
0.37729648        	-3.3967681986e+01
0.37986311        	-3.3950463658e+01
0.38245895        	-3.3924286972e+01
0.38509708        	-3.3886477587e+01
0.38778528        	-3.3835378219e+01
0.39051217        	-3.3772461180e+01
0.39325697        	-3.3703408869e+01
0.39595418        	-3.3637816470e+01
0.39856598        	-3.3583655257e+01
0.4011253         	-3.3543812525e+01
0.40357454        	-3.3518625921e+01
0.40597368        	-3.3503963737e+01
0.40835226        	-3.3494856492e+01
0.4107356         	-3.3486460412e+01
0.41314624        	-3.3475587529e+01
0.41560003        	-3.3460861439e+01
0.41810087        	-3.3442306150e+01
0.42063857        	-3.3421740767e+01
0.42318978        	-3.3401964689e+01
0.4257297         	-3.3385218490e+01
0.42824509        	-3.3372272423e+01
0.43073931        	-3.3362490556e+01
0.43322396        	-3.3354633791e+01
0.43571192        	-3.3347606094e+01
0.4382079         	-3.3340933350e+01
0.44071476        	-3.3334854811e+01
0.44323036        	-3.3330184724e+01
0.44575348        	-3.3328124569e+01
0.44828246        	-3.3330043136e+01
0.45081143        	-3.3337035365e+01
0.45333676        	-3.3349813324e+01
0.45585048        	-3.3369199800e+01
0.45834319        	-3.3396407451e+01
0.46080855        	-3.3432526142e+01
0.46324712        	-3.3477704091e+01
0.46566774        	-3.3530558586e+01
0.46808551        	-3.3588005649e+01
0.47051696        	-3.3645607912e+01
0.47298173        	-3.3698532594e+01
0.47549663        	-3.3742646281e+01
0.47807585        	-3.3775643682e+01
0.48071692        	-3.3797891339e+01
0.4834052         	-3.3812638095e+01
0.48610354        	-3.3824252086e+01
0.48876577        	-3.3836305152e+01
0.49138272        	-3.3850940668e+01
0.49395504        	-3.3868619175e+01
0.49652737        	-3.3888318547e+01
0.49909969        	-3.3907850746e+01
0.50165477        	-3.3925379207e+01
0.50421091        	-3.3940094944e+01
0.50677869        	-3.3951914029e+01
0.50935676        	-3.3961286589e+01
0.51194235        	-3.3968576668e+01
0.51453073        	-3.3973875546e+01
0.51711284        	-3.3977087849e+01
0.51968372        	-3.3977693939e+01
0.52224478        	-3.3974835181e+01
0.52480252        	-3.3967772944e+01
0.52736226        	-3.3955878046e+01
0.52993108        	-3.3938280438e+01
0.53251535        	-3.3913706275e+01
0.53512136        	-3.3880821191e+01
0.53775355        	-3.3838932766e+01
0.54040811        	-3.3788881745e+01
0.54307112        	-3.3733576106e+01
0.5457194         	-3.3677665111e+01
0.54832905        	-3.3626192847e+01
0.55088443        	-3.3582907444e+01
0.55338295        	-3.3549325607e+01
0.55583359        	-3.3524924270e+01
0.55825317        	-3.3507652592e+01
0.56065999        	-3.3494567135e+01
0.56307476        	-3.3482725669e+01
0.56550997        	-3.3469939787e+01
0.56797346        	-3.3455009875e+01
0.57046615        	-3.3437880984e+01
0.57298106        	-3.3419628086e+01
0.57550619        	-3.3401804234e+01
0.57803133        	-3.3385579959e+01
0.58055101        	-3.3371481673e+01
0.58306056        	-3.3359596433e+01
0.5855701         	-3.3349754765e+01
0.58807965        	-3.3341973538e+01
0.5905892         	-3.3336646825e+01
0.59309874        	-3.3334446857e+01
0.59560829        	-3.3336132011e+01
0.59811784        	-3.3342420181e+01
0.60062578        	-3.3353911259e+01
0.60312528        	-3.3370962005e+01
0.60561945        	-3.3393955962e+01
0.60810425        	-3.3423321261e+01
0.61057651        	-3.3459227689e+01
0.61303772        	-3.3501221510e+01
0.61549235        	-3.3547968728e+01
0.61794919        	-3.3597278338e+01
0.62041884        	-3.3646327598e+01
0.62291276        	-3.3692083539e+01
0.62544277        	-3.3731892623e+01
0.62801625        	-3.3764084080e+01
0.63063269        	-3.3788546405e+01
0.63327917        	-3.3806770213e+01
0.63593522        	-3.3821302512e+01
0.63857611        	-3.3834858031e+01
0.6411897         	-3.3849474143e+01
0.64377403        	-3.3865828277e+01
0.64633634        	-3.3883420652e+01
0.64888685        	-3.3901286772e+01
0.65143613        	-3.3918354193e+01
0.65398612        	-3.3933629852e+01
0.65654467        	-3.3946600938e+01
0.65911232        	-3.3957017982e+01
0.66168806        	-3.3964597205e+01
0.66426799        	-3.3969016302e+01
0.66684791        	-3.3969926854e+01
0.66942784        	-3.3966880724e+01
0.67200777        	-3.3959391951e+01
0.6745877         	-3.3947073600e+01
0.67716763        	-3.3929551224e+01
0.67975956        	-3.3906297364e+01
0.68235449        	-3.3877039502e+01
0.68496864        	-3.3841472866e+01
0.68758279        	-3.3800357722e+01
0.69019694        	-3.3755128364e+01
0.69281109        	-3.3708017043e+01
0.69542524        	-3.3661657092e+01
0.69803939        	-3.3618659766e+01
0.70062893        	-3.3581427129e+01
0.70312198        	-3.3551681269e+01
0.70558401        	-3.3528290966e+01
0.70802633        	-3.3510001977e+01
0.71046272        	-3.3494996792e+01
0.71290431        	-3.3481428589e+01
0.71535987        	-3.3467655703e+01
0.71783392        	-3.3452663722e+01
0.7203275         	-3.3436562904e+01
0.72283754        	-3.3419845424e+01
0.7253582         	-3.3403229978e+01
0.72788415        	-3.3387653209e+01
0.73040675        	-3.3373838766e+01
0.73292319        	-3.3362147891e+01
0.73543351        	-3.3352876793e+01
0.7379397         	-3.3346500841e+01
0.74044213        	-3.3343661562e+01
0.74294241        	-3.3345042359e+01
0.74543946        	-3.3351222089e+01
0.74793108        	-3.3362561860e+01
0.75042118        	-3.3379236057e+01
0.75290633        	-3.3401211783e+01
0.75538879        	-3.3428416858e+01
0.75786719        	-3.3460670115e+01
0.76034559        	-3.3497559302e+01
0.76282399        	-3.3538072476e+01
0.76530327        	-3.3580693885e+01
0.76779286        	-3.3623779235e+01
0.7702966         	-3.3665402124e+01
0.77282281        	-3.3703705963e+01
0.77537638        	-3.3737201144e+01
0.77796004        	-3.3765179364e+01
0.78056713        	-3.3787826309e+01
0.78319319        	-3.3806287728e+01
0.78581926        	-3.3822191781e+01
0.78843449        	-3.3837216940e+01
0.79103348        	-3.3852505437e+01
0.79362992        	-3.3868568796e+01
0.79617795        	-3.3884902492e+01
0.79872598        	-3.3901183093e+01
0.80127551        	-3.3916628256e+01
0.80382837        	-3.3930547780e+01
0.80638599        	-3.3942321258e+01
0.80894937        	-3.3951366297e+01
0.81151909        	-3.3957238513e+01
0.81409274        	-3.3959345447e+01
0.81666946        	-3.3957172379e+01
0.81924997        	-3.3950296110e+01
0.82183503        	-3.3938423493e+01
0.82442481        	-3.3921382266e+01
0.82701971        	-3.3899098102e+01
0.82961946        	-3.3871671632e+01
0.83222256        	-3.3839431993e+01
0.83482939        	-3.3803015215e+01
0.83743126        	-3.3763644976e+01
0.840025          	-3.3722855014e+01
0.84260475        	-3.3682386006e+01
0.84516489        	-3.3643920474e+01
0.84770163        	-3.3608843393e+01
0.85021278        	-3.3578065061e+01
0.85270074        	-3.3551888306e+01
0.85517087        	-3.3529989682e+01
0.85763088        	-3.3511513352e+01
0.86008706        	-3.3495352986e+01
0.86254975        	-3.3480347118e+01
0.86502143        	-3.3465590310e+01
0.86750587        	-3.3450540712e+01
0.8700027         	-3.3435102098e+01
0.87251148        	-3.3419544937e+01
0.87502902        	-3.3404384563e+01
0.87755134        	-3.3390238810e+01
0.88007366        	-3.3377700681e+01
0.88259598        	-3.3367323493e+01
0.8851142         	-3.3359751521e+01
0.88761602        	-3.3355698629e+01
0.89011783        	-3.3355830127e+01
0.89261965        	-3.3360780851e+01
0.89512146        	-3.3370973460e+01
0.89762328        	-3.3386578634e+01
0.90012392        	-3.3407469753e+01
0.90260223        	-3.3433013799e+01
0.90508055        	-3.3462855643e+01
0.90755903        	-3.3496309192e+01
0.91004202        	-3.3532525896e+01
0.91253208        	-3.3570449875e+01
0.91503211        	-3.3608871131e+01
0.9175451         	-3.3646470682e+01
0.9200743         	-3.3681981348e+01
0.92262225        	-3.3714346370e+01
0.92518965        	-3.3742892453e+01
0.92777543        	-3.3767493599e+01
0.93037421        	-3.3788565314e+01
0.93297704        	-3.3806949379e+01
0.93557961        	-3.3823662545e+01
0.93817507        	-3.3839537996e+01
0.94076019        	-3.3855134831e+01
0.94333436        	-3.3870680161e+01
0.9459001         	-3.3886063881e+01
0.9484586         	-3.3900872673e+01
0.95101649        	-3.3914591729e+01
0.95357437        	-3.3926634576e+01
0.95613226        	-3.3936380288e+01
0.95869362        	-3.3943203053e+01
0.96125923        	-3.3946477378e+01
0.96383094        	-3.3945622002e+01
0.96640671        	-3.3940126577e+01
0.96899081        	-3.3929591959e+01
0.97158162        	-3.3913835505e+01
0.97417691        	-3.3892942517e+01
0.9767722         	-3.3867300647e+01
0.97936748        	-3.3837512874e+01
0.98196277        	-3.3804374882e+01
0.98455805        	-3.3768897508e+01
0.98714048        	-3.3732426918e+01
0.98971238        	-3.3696126492e+01
0.99226315        	-3.3661268861e+01
0.99479982        	-3.3628665770e+01
0.99733649        	-3.3598822304e+01
0.99987317        	-3.3572122493e+01
1.0023616         	-3.3548981546e+01
1.0048389         	-3.3528670518e+01
1.0073116         	-3.3510544298e+01
1.0097853         	-3.3493941224e+01
1.0122639         	-3.3478287242e+01
1.0147499         	-3.3463047377e+01
1.0172439         	-3.3447946299e+01
1.0197462         	-3.3433087606e+01
1.0222557         	-3.3418704705e+01
1.0247704         	-3.3405081950e+01
1.0272873         	-3.3392723958e+01
1.0298056         	-3.3382208508e+01
1.0323216         	-3.3374168463e+01
1.034834          	-3.3369309599e+01
1.0373413         	-3.3368365477e+01
1.0398418         	-3.3371964463e+01
1.0423351         	-3.3380559682e+01
1.0448215         	-3.3394352886e+01
1.0473017         	-3.3413212104e+01
1.0497816         	-3.3436764227e+01
1.0522615         	-3.3464370531e+01
1.0547414         	-3.3495188318e+01
1.0572269         	-3.3528353217e+01
1.0597207         	-3.3562922241e+01
1.0622261         	-3.3597873274e+01
1.0647441         	-3.3632173756e+01
1.0672761         	-3.3664942109e+01
1.069823          	-3.3695451071e+01
1.0723844         	-3.3723214265e+01
1.0749577         	-3.3748063667e+01
1.0775394         	-3.3770178074e+01
1.0801211         	-3.3789989715e+01
1.0827028         	-3.3808094027e+01
1.0852844         	-3.3825003007e+01
1.0878661         	-3.3841100799e+01
1.0904478         	-3.3856642985e+01
1.0930295         	-3.3871698002e+01
1.0956112         	-3.3886081927e+01
1.0981928         	-3.3899444498e+01
1.1007673         	-3.3911317160e+01
1.1033248         	-3.3921145387e+01
1.1058834         	-3.3928413031e+01
1.1084451         	-3.3932505232e+01
1.1110111         	-3.3932819182e+01
1.1135827         	-3.3928791876e+01
1.1161614         	-3.3919979312e+01
1.1187477         	-3.3906149282e+01
1.1213409         	-3.3887284130e+01
1.123938          	-3.3863772028e+01
1.1265384         	-3.3836279425e+01
1.1291343         	-3.3805747153e+01
1.1317234         	-3.3773218083e+01
1.1343017         	-3.3739833353e+01
1.1368662         	-3.3706669832e+01
1.1394149         	-3.3674629352e+01
1.1419479         	-3.3644367103e+01
1.1444658         	-3.3616329478e+01
1.1469709         	-3.3590727941e+01
1.1494658         	-3.3567529854e+01
1.1519542         	-3.3546503067e+01
1.1544372         	-3.3527317240e+01
1.1569202         	-3.3509556911e+01
1.1594061         	-3.3492854529e+01
1.1618965         	-3.3476937864e+01
1.1643924         	-3.3461647636e+01
1.1668916         	-3.3446946371e+01
1.1693999         	-3.3432869585e+01
1.1719081         	-3.3419679561e+01
1.1744199         	-3.3407675728e+01
1.1769401         	-3.3397258870e+01
1.1794603         	-3.3389008843e+01
1.1819805         	-3.3383589913e+01
1.1844871         	-3.3381702843e+01
1.1869892         	-3.3383942372e+01
1.1894913         	-3.3390812685e+01
1.1919933         	-3.3402633774e+01
1.1944954         	-3.3419406334e+01
1.1969975         	-3.3440821741e+01
1.1994996         	-3.3466265319e+01
