# Region type :   patch outlet
# Faces           : 387
# Area            : 8.2961616953e-02
# Scale factor    : 1.0000000000e+00
# Time            	areaAverage(H2)
0.0021681777      	0.0000000000e+00
0.0099229098      	0.0000000000e+00
0.013672321       	0.0000000000e+00
0.015830949       	0.0000000000e+00
0.018084996       	0.0000000000e+00
0.020504472       	0.0000000000e+00
0.022937971       	0.0000000000e+00
0.025399178       	0.0000000000e+00
0.027896967       	0.0000000000e+00
0.030624273       	0.0000000000e+00
0.034931782       	7.1643246017e-273
0.040906243       	5.8701771279e-234
0.047715234       	4.1987933601e-206
0.052397469       	4.8902584725e-196
0.055749718       	4.0053761390e-190
0.058724445       	3.3206022393e-185
0.061408972       	7.1968022403e-181
0.064030542       	2.8139411709e-176
0.066859301       	1.3403504248e-170
0.069929382       	2.8345829686e-164
0.073448452       	4.8068814614e-157
0.077645508       	3.8531780356e-148
0.082343589       	8.1820405573e-139
0.086876095       	3.3879971058e-131
0.090763315       	1.8330346885e-125
0.094101884       	5.4186652557e-121
0.097212628       	5.0915066045e-117
0.1003125         	3.9413889168e-113
0.10353884        	3.7075847322e-109
0.10697101        	4.8684228425e-105
0.11039961        	3.2460332482e-101
0.11345542        	3.4835994804e-98
0.1162904         	1.0602645694e-95
0.11915104        	1.4998007761e-93
0.12217829        	1.0346178194e-91
0.12526373        	2.9329211492e-90
0.12820817        	3.6357887597e-89
0.13099586        	2.7768614958e-88
0.13374612        	1.8148087058e-87
0.13659966        	1.2919349872e-86
0.13967523        	1.2039294251e-85
0.14299138        	1.4986622942e-84
0.14646759        	2.0276446725e-83
0.15008981        	2.6506631862e-82
0.15387799        	3.2457258713e-81
0.15755623        	2.9431421619e-80
0.16083132        	1.8249523247e-79
0.16380175        	9.1622195330e-79
0.16670485        	4.5987104007e-78
0.16976335        	2.7312808294e-77
0.1730982         	2.0932375731e-76
0.17658314        	1.8912497454e-75
0.17994126        	1.6385702062e-74
0.18308748        	1.2678237935e-73
0.18609598        	9.0783557991e-73
0.18905428        	6.3497147390e-72
0.19197925        	4.5688482511e-71
0.19489589        	3.7671412062e-70
0.19781252        	4.1160550973e-69
0.20072401        	6.8880691404e-68
0.20366191        	1.9513944348e-66
0.20666789        	9.3099029265e-65
0.2096902         	5.5952433050e-63
0.21266311        	2.9907728493e-61
0.2155666         	1.2017969533e-59
0.21841093        	3.5902070363e-58
0.22119744        	8.2107108039e-57
0.22390632        	1.4901068711e-55
0.22651648        	2.2277517157e-54
0.22903841        	2.9093804016e-53
0.23151192        	3.6056214890e-52
0.23400096        	4.7730526260e-51
0.23657196        	8.0595904069e-50
0.2392785         	2.2171566962e-48
0.24211876        	9.9736132628e-47
0.24501799        	5.1897974514e-45
0.2478834         	2.3061356487e-43
0.25065977        	7.7424886067e-42
0.2533459         	1.9636571483e-40
0.25597698        	3.9818984428e-39
0.25860067        	6.9296707255e-38
0.26126027        	1.1017859768e-36
0.26399007        	1.6819409931e-35
0.2668064         	2.5091341049e-34
0.26970988        	3.5583812008e-33
0.27267817        	4.4551566322e-32
0.27567758        	4.5024311552e-31
0.27866696        	3.3998374243e-30
0.28163078        	1.8815662961e-29
0.28457188        	7.8721642598e-29
0.28753883        	2.6849001013e-28
0.29052783        	7.9317722195e-28
0.29353486        	2.1650792391e-27
0.29659202        	5.8302940390e-27
0.29969018        	1.5931583660e-26
0.30301934        	4.7060842805e-26
0.30658026        	1.4560161913e-25
0.31024889        	4.3161617649e-25
0.31382774        	1.1217146129e-24
0.31720839        	2.5139340569e-24
0.32041107        	5.0619761631e-24
0.32351278        	9.6195279253e-24
0.32660124        	1.7981669403e-23
0.32975261        	3.4249901215e-23
0.33300475        	6.8349856780e-23
0.33633829        	1.4469775110e-22
0.33966879        	3.1994261304e-22
0.34291084        	7.1763639519e-22
0.34603661        	1.6170709381e-21
0.34907161        	3.7291869939e-21
0.35206544        	9.1148824676e-21
0.35505201        	2.4446510480e-20
0.35803859        	7.3542106800e-20
0.36101915        	2.4814076266e-19
0.36398392        	9.1505420421e-19
0.36693606        	3.5503855283e-18
0.36988068        	1.3891838858e-17
0.37279146        	5.2151234773e-17
0.3756348         	1.8128095469e-16
0.37839435        	5.7768020636e-16
0.38107617        	1.7134167189e-15
0.38370256        	4.8524460694e-15
0.38629891        	1.3426309000e-14
0.38888402        	3.6874318125e-14
0.39149716        	1.0245041131e-13
0.39416154        	2.9044507244e-13
0.3968771         	8.3622760401e-13
0.39971551        	2.5034057754e-12
0.40256148        	7.4009833615e-12
0.40538378        	2.1160203551e-11
0.40814127        	5.7121740254e-11
0.41083253        	1.4495873695e-10
0.41348665        	3.4919989741e-10
0.41614424        	8.0942458929e-10
0.41884293        	1.8242831227e-09
0.42160484        	4.0071371606e-09
0.42443343        	8.5298185730e-09
0.42731746        	1.7414124547e-08
0.43024079        	3.3723013353e-08
0.43319313        	6.1456850340e-08
0.43616409        	1.0493724342e-07
0.43914012        	1.6797221779e-07
0.44211842        	2.5408246883e-07
0.44511191        	3.6834405071e-07
0.44815399        	5.2074359826e-07
0.45128517        	7.2922545893e-07
0.45452847        	1.0199275129e-06
0.45788651        	1.4237764977e-06
0.46134183        	1.9672155732e-06
0.46485175        	2.6577543111e-06
0.46833233        	3.4714155151e-06
0.47169653        	4.3666387215e-06
0.47493032        	5.3248159401e-06
0.47808918        	6.3707213226e-06
0.48125065        	7.5713223061e-06
0.48447018        	9.0296760820e-06
0.48775734        	1.0877482533e-05
0.49106617        	1.3254772548e-05
0.49437499        	1.6355061031e-05
0.49761383        	2.0370259294e-05
0.50078567        	2.5647023513e-05
0.50388467        	3.2681561448e-05
0.50692466        	4.2270500190e-05
0.50992624        	5.5669912876e-05
0.51290826        	7.4764589643e-05
0.5158791         	1.0214965751e-04
0.51883476        	1.4105727688e-04
0.52176342        	1.9514267386e-04
0.52465176        	2.6824527504e-04
0.52749056        	3.6423211803e-04
0.53027645        	4.8720863882e-04
0.53301315        	6.4223363067e-04
0.53570778        	8.3645672963e-04
0.53837232        	1.0801259920e-03
0.54102325        	1.3871257310e-03
0.54367819        	1.7755691458e-03
0.54635955        	2.2688907107e-03
0.54908392        	2.8939180758e-03
0.55185645        	3.6787204265e-03
0.55465972        	4.6436578493e-03
0.55745829        	5.7917193645e-03
0.56022304        	7.1091045025e-03
0.56294948        	8.5790443334e-03
0.5656483         	1.0187590520e-02
0.56834313        	1.1927390211e-02
0.57105618        	1.3786066248e-02
0.57380366        	1.5738050053e-02
0.57659978        	1.7747593792e-02
0.57945291        	1.9767314660e-02
0.58236347        	2.1740481021e-02
0.58531995        	2.3606164836e-02
0.58831216        	2.5317686568e-02
0.59130904        	2.6839345431e-02
0.59430592        	2.8174946144e-02
0.59736167        	2.9368857481e-02
0.6004717         	3.0441508517e-02
0.60366859        	3.1421162417e-02
0.60695476        	3.2311798637e-02
0.61031304        	3.3101053007e-02
0.61372087        	3.3773572131e-02
0.61714804        	3.4321267051e-02
0.62054119        	3.4748058883e-02
0.62385362        	3.5072672318e-02
0.6270846         	3.5321921040e-02
0.63027734        	3.5520192200e-02
0.633484          	3.5683356645e-02
0.63672862        	3.5816776863e-02
0.64000158        	3.5916189154e-02
0.64327649        	3.5970487314e-02
0.64652965        	3.5964732966e-02
0.6497426         	3.5881872864e-02
0.65289591        	3.5704619355e-02
0.65597902        	3.5417148155e-02
0.65899774        	3.5004825441e-02
0.66197123        	3.4453797472e-02
0.66491892        	3.3754619085e-02
0.6678488         	3.2909013572e-02
0.67075798        	3.1933525905e-02
0.67363698        	3.0857391472e-02
0.67647638        	2.9716773104e-02
0.67927519        	2.8544521474e-02
0.68204058        	2.7364225701e-02
0.68477551        	2.6193149224e-02
0.68748856        	2.5041026091e-02
0.69017919        	2.3922734546e-02
0.69286982        	2.2847872988e-02
0.69556046        	2.1842743139e-02
0.69825109        	2.0941085635e-02
0.70096629        	2.0175642352e-02
0.70374493        	1.9586534702e-02
0.70653268        	1.9235919125e-02
0.70930527        	1.9162002339e-02
0.71205475        	1.9382009850e-02
0.71478633        	1.9898696151e-02
0.7175134         	2.0707718318e-02
0.72024913        	2.1797261255e-02
0.72300504        	2.3145125307e-02
0.72579475        	2.4719548293e-02
0.72863287        	2.6479835255e-02
0.7315286         	2.8373803773e-02
0.73448394        	3.0338133693e-02
0.73748823        	3.2299973977e-02
0.7405252         	3.4191741486e-02
0.74358482        	3.5970123627e-02
0.74667606        	3.7626757795e-02
0.74982135        	3.9175938613e-02
0.75303368        	4.0628250118e-02
0.75630901        	4.1977616787e-02
0.75962826        	4.3202521010e-02
0.76297836        	4.4280479651e-02
0.76634396        	4.5194054138e-02
0.76969894        	4.5938890230e-02
0.77300314        	4.6528711780e-02
0.77624904        	4.6998339718e-02
0.77945958        	4.7389195306e-02
0.78267197        	4.7737564160e-02
0.78591085        	4.8065970510e-02
0.78914974        	4.8376696091e-02
0.79238862        	4.8660680659e-02
0.79562751        	4.8897565955e-02
0.79886639        	4.9057335104e-02
0.80204051        	4.9102489303e-02
0.80512294        	4.9002961813e-02
0.80813876        	4.8733775511e-02
0.81110328        	4.8272641946e-02
0.81403366        	4.7599007972e-02
0.81694003        	4.6698509377e-02
0.81982267        	4.5569327817e-02
0.82267734        	4.4224899901e-02
0.82550227        	4.2691960118e-02
0.82830018        	4.1003468308e-02
0.83107644        	3.9192338469e-02
0.83383381        	3.7289624324e-02
0.83657093        	3.5328243276e-02
0.83928785        	3.3341691813e-02
0.84199091        	3.1362203224e-02
0.8446957         	2.9422355059e-02
0.84742031        	2.7559577307e-02
0.85017381        	2.5825071115e-02
0.85294861        	2.4284086668e-02
0.85572727        	2.3001613851e-02
0.85849547        	2.2024003793e-02
0.86125132        	2.1371433793e-02
0.86399945        	2.1045648581e-02
0.86675358        	2.1037444836e-02
0.86951569        	2.1329557231e-02
0.87229362        	2.1895136097e-02
0.87510067        	2.2702470119e-02
0.8779515         	2.3717660553e-02
0.88085782        	2.4904088931e-02
0.8838261         	2.6220383909e-02
0.88684074        	2.7612518010e-02
0.88989684        	2.9032780854e-02
0.89297901        	3.0438219487e-02
0.89609945        	3.1812308033e-02
0.89921989        	3.3126608474e-02
0.90242625        	3.4406616480e-02
0.90568947        	3.5626759125e-02
0.90897543        	3.6759828176e-02
0.91228709        	3.7792655080e-02
0.91561845        	3.8711979191e-02
0.91893778        	3.9508173695e-02
0.9222184         	4.0189543927e-02
0.92545948        	4.0782744150e-02
0.92868634        	4.1324601240e-02
0.9319132         	4.1848352863e-02
0.93514194        	4.2377712634e-02
0.93836663        	4.2923492071e-02
0.9415829         	4.3483834413e-02
0.94478765        	4.4043387383e-02
0.94796546        	4.4571499105e-02
0.95109391        	4.5027893237e-02
0.95415861        	4.5374153725e-02
0.95716308        	4.5577551336e-02
0.96012052        	4.5609639057e-02
0.9630423         	4.5446466590e-02
0.9659349         	4.5070668191e-02
0.96879894        	4.4474273758e-02
0.97163694        	4.3660551107e-02
0.97445249        	4.2642922252e-02
0.97725256        	4.1440444258e-02
0.98004175        	4.0075422468e-02
0.98281373        	3.8576747275e-02
0.98556542        	3.6975256294e-02
0.98829445        	3.5303720544e-02
0.99101667        	3.3588105144e-02
0.99373889        	3.1864607825e-02
0.99646111        	3.0178895665e-02
0.99918333        	2.8581203135e-02
1.0019416         	2.7106317484e-02
1.0047115         	2.5823478919e-02
1.0074761         	2.4784669603e-02
1.0102387         	2.4016547614e-02
1.0130061         	2.3531784428e-02
1.0157793         	2.3332161270e-02
1.0185612         	2.3406318134e-02
1.0213592         	2.3732339686e-02
1.0241868         	2.4283169430e-02
1.0270586         	2.5029994979e-02
1.0299837         	2.5941419324e-02
1.032962          	2.6980866323e-02
1.0359865         	2.8106946407e-02
1.0390512         	2.9279591640e-02
1.0421569         	3.0467677144e-02
1.0453105         	3.1649956164e-02
1.0485096         	3.2805939259e-02
1.0517396         	3.3913183225e-02
1.0549875         	3.4952979591e-02
1.0582542         	3.5913945505e-02
1.0615442         	3.6787822516e-02
1.0648451         	3.7566978984e-02
1.0681317         	3.8250369736e-02
1.0713907         	3.8850476486e-02
1.0746275         	3.9390806787e-02
1.0778597         	3.9899268933e-02
1.0810919         	4.0399343472e-02
1.0843224         	4.0906816682e-02
1.0875219         	4.1423242594e-02
1.0907214         	4.1948979614e-02
1.0939209         	4.2466657359e-02
1.0971204         	4.2946655178e-02
1.1003075         	4.3350088564e-02
1.1033492         	4.3627465265e-02
1.1063392         	4.3761783690e-02
1.1092883         	4.3729011939e-02
1.1122026         	4.3510516880e-02
1.1150842         	4.3095286174e-02
1.1179364         	4.2480727555e-02
1.1207656         	4.1672705998e-02
1.1235793         	4.0683714001e-02
1.1263824         	3.9531748476e-02
1.1291753         	3.8238989611e-02
1.1319532         	3.6833347791e-02
1.1347117         	3.5345827895e-02
1.1374539         	3.3806055414e-02
1.1401912         	3.2243037725e-02
1.1429339         	3.0688999235e-02
1.1456912         	2.9181360290e-02
1.1484603         	2.7768207409e-02
1.1512313         	2.6502649901e-02
1.1539978         	2.5430573363e-02
1.1567607         	2.4584650241e-02
1.1595324         	2.3983960562e-02
1.1623119         	2.3641522649e-02
1.1651007         	2.3557896703e-02
1.1679001         	2.3721637882e-02
1.1707212         	2.4112675658e-02
1.1735763         	2.4706952982e-02
1.1764754         	2.5478054701e-02
1.1794225         	2.6396109591e-02
1.1824165         	2.7427201901e-02
1.1854546         	2.8535326524e-02
1.1885334         	2.9686134260e-02
1.1916591         	3.0853889093e-02
1.1948066         	3.2005444887e-02
1.1979541         	3.3112155276e-02
