# Region type :   patch branch_inlet
# Faces           : 80
# Area            : 5.2524867279e-03
# Scale factor    : 1.0000000000e+00
# Time            	sum(phi)
0.001928031       	-1.0806385269e+00
0.0066204697      	-1.0738449392e+00
0.010030769       	-1.0794561572e+00
0.011906972       	-1.0831430967e+00
0.013705008       	-1.0833528370e+00
0.015619259       	-1.0884496883e+00
0.017547904       	-1.1107613809e+00
0.019433094       	-1.1450722681e+00
0.021292519       	-1.1560020586e+00
0.023182891       	-1.1583458176e+00
0.02502125        	-1.1614596168e+00
0.026607595       	-1.1642360845e+00
0.028013469       	-1.1659321341e+00
0.029376892       	-1.1654907598e+00
0.030734749       	-1.1666220116e+00
0.032082619       	-1.1764377215e+00
0.033416523       	-1.1970172783e+00
0.034747782       	-1.2121509847e+00
0.036112505       	-1.2191358195e+00
0.037517471       	-1.2273231393e+00
0.038881836       	-1.2337173870e+00
0.040143504       	-1.2373291197e+00
0.041339178       	-1.2378850039e+00
0.042504548       	-1.2348420830e+00
0.043640846       	-1.2337394307e+00
0.044748064       	-1.2418311880e+00
0.045841401       	-1.2568938252e+00
0.046948465       	-1.2672874140e+00
0.04808858        	-1.2727667609e+00
0.049248753       	-1.2826047413e+00
0.050390602       	-1.2945152553e+00
0.05149099        	-1.2995095641e+00
0.052559133       	-1.2969983401e+00
0.053600321       	-1.2928801254e+00
0.054606744       	-1.2932192116e+00
0.05558401        	-1.3002024288e+00
0.056555948       	-1.3106721205e+00
0.057543207       	-1.3187249261e+00
0.058550584       	-1.3248495691e+00
0.059569073       	-1.3352161039e+00
0.060579102       	-1.3467847507e+00
0.061563529       	-1.3506689774e+00
0.062520027       	-1.3475723696e+00
0.063451447       	-1.3439723608e+00
0.064358257       	-1.3444779267e+00
0.065249331       	-1.3506786625e+00
0.066141734       	-1.3614621406e+00
0.067046638       	-1.3723869988e+00
0.067964224       	-1.3805509216e+00
0.068881987       	-1.3878082523e+00
0.069780444       	-1.3930979948e+00
0.070649201       	-1.3933003308e+00
0.071492499       	-1.3903926825e+00
0.072321592       	-1.3886071498e+00
0.073145594       	-1.3909876084e+00
0.073969608       	-1.3998581178e+00
0.074796054       	-1.4143311703e+00
0.075623491       	-1.4273322119e+00
0.076445027       	-1.4328524894e+00
0.077248325       	-1.4324636940e+00
0.078019181       	-1.4301984503e+00
0.078750068       	-1.4282131157e+00
0.079444683       	-1.4277205131e+00
0.080113743       	-1.4299136264e+00
0.080766073       	-1.4355721165e+00
0.081402689       	-1.4445035174e+00
0.082017271       	-1.4550631666e+00
0.082603565       	-1.4643774102e+00
0.083159118       	-1.4697618514e+00
0.083683177       	-1.4704844260e+00
0.084174371       	-1.4679770832e+00
0.084632225       	-1.4643983207e+00
0.085058579       	-1.4613462636e+00
0.085457934       	-1.4594846198e+00
0.085836379       	-1.4588159517e+00
0.086200066       	-1.4590640145e+00
0.086554529       	-1.4599497162e+00
0.08690409        	-1.4613331986e+00
0.08725162        	-1.4632523209e+00
0.087598848       	-1.4658675761e+00
0.087946219       	-1.4693297097e+00
0.088292859       	-1.4736263559e+00
0.088637326       	-1.4784422387e+00
0.088978198       	-1.4831893998e+00
0.089314569       	-1.4871901936e+00
0.089645958       	-1.4899073219e+00
0.089972487       	-1.4910831793e+00
0.090294327       	-1.4907477008e+00
0.090611591       	-1.4892148586e+00
0.090924257       	-1.4869074493e+00
0.091232149       	-1.4842811686e+00
0.091535147       	-1.4817349155e+00
0.091833446       	-1.4795762131e+00
0.092127399       	-1.4779953070e+00
0.09241775        	-1.4770739750e+00
0.09270538        	-1.4768075554e+00
0.092991295       	-1.4771199508e+00
0.093276371       	-1.4778920210e+00
0.093561488       	-1.4790319161e+00
0.093847303       	-1.4805100995e+00
0.094134187       	-1.4823448979e+00
0.094422231       	-1.4845954910e+00
0.094711507       	-1.4873024329e+00
0.095001576       	-1.4904490258e+00
0.095292182       	-1.4938937705e+00
0.095582788       	-1.4973543954e+00
0.09587276        	-1.5004472968e+00
0.096161917       	-1.5027531063e+00
0.096449934       	-1.5039865521e+00
0.096736557       	-1.5040307973e+00
0.097021621       	-1.5030231884e+00
0.097304915       	-1.5012453340e+00
0.097586495       	-1.4990223184e+00
0.097866115       	-1.4966833658e+00
0.098143735       	-1.4944937740e+00
0.098419286       	-1.4926329370e+00
0.098692665       	-1.4911958349e+00
0.098965027       	-1.4902340352e+00
0.09923502        	-1.4897738320e+00
0.099503434       	-1.4897980169e+00
0.099771848       	-1.4902608800e+00
0.10004036        	-1.4911155058e+00
0.1003097         	-1.4923252030e+00
0.10057977        	-1.4938650661e+00
0.10085074        	-1.4957173466e+00
0.10112265        	-1.4978787145e+00
0.10139541        	-1.5003419403e+00
0.10166885        	-1.5030631561e+00
0.10194274        	-1.5059209295e+00
0.10221684        	-1.5087053537e+00
0.10249089        	-1.5111159795e+00
0.10276465        	-1.5128816472e+00
0.10303793        	-1.5137590060e+00
0.10331052        	-1.5136639308e+00
0.10358228        	-1.5126809007e+00
0.10385305        	-1.5110266777e+00
0.10412272        	-1.5089663644e+00
0.10439117        	-1.5067835250e+00
0.10465832        	-1.5047195427e+00
0.10492414        	-1.5029404341e+00
0.10518865        	-1.5015327974e+00
0.10545195        	-1.5005437072e+00
0.10571426        	-1.4999882423e+00
0.10597588        	-1.4998457452e+00
0.10623717        	-1.5000875643e+00
0.10649847        	-1.5006858955e+00
0.10676011        	-1.5016362875e+00
0.10702233        	-1.5029177244e+00
0.10728529        	-1.5045187847e+00
0.10754904        	-1.5064204023e+00
0.10781354        	-1.5085863947e+00
0.10807867        	-1.5109619170e+00
0.10834428        	-1.5134595921e+00
0.1086102         	-1.5159394477e+00
0.10887623        	-1.5182072482e+00
0.10914222        	-1.5200399862e+00
0.10940798        	-1.5212441911e+00
0.10967336        	-1.5216543269e+00
0.10993824        	-1.5212552713e+00
0.11020248        	-1.5201405773e+00
0.11046595        	-1.5184890397e+00
0.11072854        	-1.5165281306e+00
0.11099018        	-1.5144999700e+00
0.11125082        	-1.5126003465e+00
0.11151043        	-1.5109607153e+00
0.11176908        	-1.5096696072e+00
0.11202685        	-1.5087734037e+00
0.11228394        	-1.5082776408e+00
0.11254059        	-1.5081629357e+00
0.11279705        	-1.5083990842e+00
0.11305361        	-1.5089645504e+00
0.11331045        	-1.5098508380e+00
0.11356775        	-1.5110359037e+00
0.11382571        	-1.5125390118e+00
0.11408438        	-1.5143272650e+00
0.11434371        	-1.5163654954e+00
0.11460364        	-1.5185835842e+00
0.11486403        	-1.5208807939e+00
0.11512473        	-1.5231241019e+00
0.11538558        	-1.5251567913e+00
0.11564643        	-1.5267989315e+00
0.11590713        	-1.5278659353e+00
0.11616756        	-1.5282519165e+00
0.11642757        	-1.5279417023e+00
0.11668705        	-1.5270135867e+00
0.11694591        	-1.5255910661e+00
0.11720402        	-1.5238402392e+00
0.11746132        	-1.5219533016e+00
0.11771777        	-1.5201259561e+00
0.11797334        	-1.5184904591e+00
0.11822807        	-1.5171463255e+00
0.11848206        	-1.5161636067e+00
0.11873545        	-1.5155629738e+00
0.11898843        	-1.5153270016e+00
0.11924122        	-1.5154294682e+00
0.11949407        	-1.5158492325e+00
0.11974717        	-1.5165783793e+00
0.1200007         	-1.5175978182e+00
0.12025479        	-1.5189000448e+00
0.12050951        	-1.5204847141e+00
0.12076487        	-1.5223246716e+00
0.12102081        	-1.5243616965e+00
0.12127725        	-1.5265008754e+00
0.12153405        	-1.5286188084e+00
0.12179107        	-1.5305793070e+00
0.12204817        	-1.5322199319e+00
0.12230521        	-1.5333873964e+00
0.12256205        	-1.5339854278e+00
0.12281859        	-1.5339639958e+00
0.12307471        	-1.5333620604e+00
0.12333031        	-1.5322659750e+00
0.1235853         	-1.5307980034e+00
0.12383959        	-1.5291096867e+00
0.12409314        	-1.5273700142e+00
0.12434591        	-1.5257172679e+00
0.12459792        	-1.5242650165e+00
0.12484923        	-1.5230991715e+00
0.12509994        	-1.5222677095e+00
0.12535022        	-1.5217880984e+00
0.12560024        	-1.5216587240e+00
0.12585021        	-1.5218596424e+00
0.1261003         	-1.5223647975e+00
0.1263507         	-1.5231531980e+00
0.12660153        	-1.5242114499e+00
0.12685288        	-1.5255344405e+00
0.12710481        	-1.5271158946e+00
0.12735728        	-1.5289144850e+00
0.12761027        	-1.5308693334e+00
0.12786367        	-1.5328855113e+00
0.12811738        	-1.5348427081e+00
0.12837127        	-1.5365946383e+00
0.12862519        	-1.5379927207e+00
0.12887904        	-1.5389108312e+00
0.12913269        	-1.5392894373e+00
0.12938602        	-1.5391163215e+00
0.12963895        	-1.5384478874e+00
0.12989138        	-1.5373621089e+00
0.13014323        	-1.5359620689e+00
0.13039443        	-1.5343902446e+00
0.13064493        	-1.5327857036e+00
0.13089471        	-1.5312649231e+00
0.13114381        	-1.5299253908e+00
0.13139229        	-1.5288329198e+00
0.13164027        	-1.5280448727e+00
0.13188788        	-1.5275883489e+00
0.13213526        	-1.5274654512e+00
0.1323826         	-1.5276587785e+00
0.13263007        	-1.5281459450e+00
0.1328778         	-1.5289101755e+00
0.1331259         	-1.5299395726e+00
0.13337446        	-1.5312200259e+00
0.13362351        	-1.5327321209e+00
0.13387305        	-1.5344347803e+00
0.13412302        	-1.5362685235e+00
0.13437337        	-1.5381605490e+00
0.134624          	-1.5399935496e+00
0.13487481        	-1.5416300462e+00
0.13512568        	-1.5429300139e+00
0.13537648        	-1.5437812445e+00
0.13562711        	-1.5441364356e+00
0.13587749        	-1.5439841027e+00
0.13612749        	-1.5433756846e+00
0.13637705        	-1.5423872725e+00
0.13662609        	-1.5411137526e+00
0.13687455        	-1.5396793706e+00
0.13712237        	-1.5382013248e+00
0.13736955        	-1.5367731084e+00
0.1376161         	-1.5354796734e+00
0.13786206        	-1.5343891972e+00
0.13810753        	-1.5335680294e+00
0.13835264        	-1.5330466530e+00
0.13859754        	-1.5328415753e+00
0.13884238        	-1.5329436358e+00
0.13908732        	-1.5333340731e+00
0.13933249        	-1.5340004054e+00
0.139578          	-1.5349334861e+00
0.13982393        	-1.5361089281e+00
0.14007032        	-1.5374995947e+00
0.14031719        	-1.5390722339e+00
0.14056451        	-1.5407833515e+00
0.14081224        	-1.5425677072e+00
0.14106032        	-1.5443213304e+00
0.14130865        	-1.5459134020e+00
0.14155714        	-1.5472180367e+00
0.14180567        	-1.5481384442e+00
0.14205417        	-1.5486099797e+00
0.14230253        	-1.5486042639e+00
0.14255067        	-1.5481499998e+00
0.14279851        	-1.5473167199e+00
0.14304597        	-1.5462039203e+00
0.14329301        	-1.5449153457e+00
0.14353957        	-1.5435479246e+00
0.14378564        	-1.5421915369e+00
0.14403122        	-1.5409263811e+00
0.14427634        	-1.5398217766e+00
0.14452109        	-1.5389357329e+00
0.14476556        	-1.5383101875e+00
0.1450099         	-1.5379698812e+00
0.14525424        	-1.5379259115e+00
0.14549872        	-1.5381785370e+00
0.14574347        	-1.5387165907e+00
0.14598859        	-1.5395230344e+00
0.14623417        	-1.5405753106e+00
0.14648024        	-1.5418456725e+00
0.14672681        	-1.5433034789e+00
0.14697389        	-1.5449109311e+00
0.14722142        	-1.5466080455e+00
0.14746934        	-1.5483053223e+00
0.14771759        	-1.5498935918e+00
0.14796606        	-1.5512490088e+00
0.14821464        	-1.5522721750e+00
0.14846324        	-1.5528815454e+00
0.14871173        	-1.5530406386e+00
0.14896003        	-1.5527606124e+00
0.14920803        	-1.5521027783e+00
0.14945567        	-1.5511476873e+00
0.14970286        	-1.5499945603e+00
0.14994956        	-1.5487358224e+00
0.15019573        	-1.5474580002e+00
0.15044136        	-1.5462377781e+00
0.15068647        	-1.5451413062e+00
0.15093112        	-1.5442225024e+00
0.15117538        	-1.5435248418e+00
0.15141937        	-1.5430787821e+00
0.15166322        	-1.5429034861e+00
0.15190705        	-1.5430117234e+00
0.152151          	-1.5434031863e+00
0.15239516        	-1.5440700764e+00
0.15263961        	-1.5449893986e+00
0.1528844         	-1.5461332817e+00
0.15312957        	-1.5474696439e+00
0.15337511        	-1.5489606533e+00
0.153621          	-1.5505515630e+00
0.1538672         	-1.5521706949e+00
0.15411366        	-1.5537243631e+00
0.15436029        	-1.5551102045e+00
0.15460702        	-1.5562239218e+00
0.15485376        	-1.5569775808e+00
0.15510041        	-1.5573218208e+00
0.15534689        	-1.5572434265e+00
0.1555931         	-1.5567850859e+00
0.15583898        	-1.5560164121e+00
0.15608446        	-1.5550193247e+00
0.15632948        	-1.5538827162e+00
0.15657401        	-1.5526942400e+00
0.15681804        	-1.5515262847e+00
0.15706156        	-1.5504413848e+00
0.15730463        	-1.5494873471e+00
0.15754731        	-1.5487070076e+00
0.15778968        	-1.5481376647e+00
0.15803187        	-1.5478087277e+00
0.15827397        	-1.5477410380e+00
0.15851613        	-1.5479429048e+00
0.15875844        	-1.5484148803e+00
0.159001          	-1.5491475404e+00
0.15924385        	-1.5501162053e+00
0.15948704        	-1.5512913532e+00
0.15973058        	-1.5526406438e+00
0.15997446        	-1.5541172428e+00
0.16021864        	-1.5556606509e+00
0.1604631         	-1.5571907262e+00
0.16070778        	-1.5586141515e+00
0.1609526         	-1.5598367608e+00
0.16119748        	-1.5607720384e+00
0.16144235        	-1.5613510570e+00
0.16168711        	-1.5615431777e+00
0.16193168        	-1.5613522635e+00
0.16217598        	-1.5608248407e+00
0.16241995        	-1.5600300624e+00
0.16266352        	-1.5590509350e+00
0.16290666        	-1.5579699025e+00
0.16314933        	-1.5568617024e+00
0.16339153        	-1.5557900202e+00
0.16363328        	-1.5548066450e+00
0.16387464        	-1.5539539158e+00
0.16411567        	-1.5532692960e+00
0.16435647        	-1.5527851490e+00
0.16459714        	-1.5525276830e+00
0.16483782        	-1.5525160085e+00
0.16507858        	-1.5527586912e+00
0.16531955        	-1.5532569048e+00
0.16556078        	-1.5540034670e+00
0.16580236        	-1.5549817477e+00
0.16604429        	-1.5561609838e+00
0.1662866         	-1.5574977024e+00
0.16652927        	-1.5589413223e+00
0.16677228        	-1.5604272497e+00
0.16701559        	-1.5618766207e+00
0.16725914        	-1.5632022062e+00
0.16750288        	-1.5643156205e+00
0.16774675        	-1.5651435968e+00
0.16799063        	-1.5656313752e+00
0.1682345         	-1.5657535989e+00
0.16847825        	-1.5655244630e+00
0.16872181        	-1.5649925605e+00
0.16896512        	-1.5642211369e+00
0.16920811        	-1.5632899331e+00
0.16945075        	-1.5622723486e+00
0.16969302        	-1.5612399246e+00
0.16993491        	-1.5602502382e+00
0.17017645        	-1.5593506568e+00
0.1704177         	-1.5585813090e+00
0.17065871        	-1.5579771543e+00
0.17089957        	-1.5575627917e+00
0.17114037        	-1.5573610465e+00
0.17138125        	-1.5573920405e+00
0.1716223         	-1.5576680569e+00
0.17186359        	-1.5581934498e+00
0.17210519        	-1.5589606046e+00
0.17234712        	-1.5599518257e+00
0.17258942        	-1.5611338516e+00
0.17283208        	-1.5624633341e+00
0.17307509        	-1.5638864587e+00
0.1733184         	-1.5653334079e+00
0.17356198        	-1.5667222241e+00
0.17380575        	-1.5679636097e+00
0.17404965        	-1.5689867957e+00
0.17429366        	-1.5697234224e+00
0.17453763        	-1.5701334970e+00
0.17478149        	-1.5701990395e+00
0.17502518        	-1.5699418741e+00
0.17526862        	-1.5694102079e+00
0.17551173        	-1.5686677391e+00
0.17575447        	-1.5677877798e+00
0.1759968         	-1.5668387504e+00
0.1762387         	-1.5658873443e+00
0.17648018        	-1.5649815442e+00
0.17672126        	-1.5641666860e+00
0.176962          	-1.5634785635e+00
0.17720247        	-1.5629462769e+00
0.17744277        	-1.5625939151e+00
0.17768299        	-1.5624434252e+00
0.17792322        	-1.5625145114e+00
0.17816359        	-1.5628165480e+00
0.17840415        	-1.5633576542e+00
0.17864496        	-1.5641273956e+00
0.17888608        	-1.5651120863e+00
0.1791275         	-1.5662800581e+00
0.17936922        	-1.5675844739e+00
0.17961124        	-1.5689664002e+00
0.1798535         	-1.5703557758e+00
0.18009599        	-1.5716745257e+00
0.18033864        	-1.5728438042e+00
0.18058138        	-1.5737935831e+00
0.18082411        	-1.5744619697e+00
0.18106684        	-1.5748237740e+00
0.1813095         	-1.5748654525e+00
0.18155198        	-1.5746081435e+00
0.18179419        	-1.5741023343e+00
0.18203609        	-1.5734074666e+00
0.18227764        	-1.5725883523e+00
0.18251878        	-1.5717111554e+00
0.18275951        	-1.5708335951e+00
0.18299984        	-1.5700026012e+00
0.1832398         	-1.5692558070e+00
0.18347947        	-1.5686258298e+00
0.18371887        	-1.5681402678e+00
0.18395812        	-1.5678237145e+00
0.18419737        	-1.5676994896e+00
0.18443662        	-1.5677826693e+00
0.18467595        	-1.5680830330e+00
0.18491547        	-1.5686089250e+00
0.18515523        	-1.5693519468e+00
0.18539526        	-1.5703015822e+00
0.18563557        	-1.5714283708e+00
0.18587615        	-1.5726877873e+00
0.18611702        	-1.5740217341e+00
0.1863581         	-1.5753604695e+00
0.18659935        	-1.5766268145e+00
0.1868408         	-1.5777447281e+00
0.18708226        	-1.5786490318e+00
0.18732371        	-1.5792892067e+00
0.18756516        	-1.5796403490e+00
0.18780649        	-1.5796951534e+00
0.18804762        	-1.5794738075e+00
0.1882885         	-1.5790189543e+00
0.18852906        	-1.5783856413e+00
0.18876924        	-1.5776355797e+00
0.18900905        	-1.5768277870e+00
0.18924841        	-1.5760140128e+00
0.18948741        	-1.5752373451e+00
0.18972599        	-1.5745356333e+00
0.18996429        	-1.5739404342e+00
0.19020237        	-1.5734786652e+00
0.19044017        	-1.5731718223e+00
0.19067798        	-1.5730399421e+00
0.19091579        	-1.5730985491e+00
0.19115359        	-1.5733600412e+00
0.19139169        	-1.5738339333e+00
0.1916299         	-1.5745170915e+00
0.19186837        	-1.5753979825e+00
0.19210711        	-1.5764522340e+00
0.19234606        	-1.5776402762e+00
0.19258524        	-1.5789088768e+00
0.19282466        	-1.5801908227e+00
0.19306424        	-1.5814116757e+00
0.19330382        	-1.5824996728e+00
0.1935434         	-1.5833924693e+00
0.19378297        	-1.5840419418e+00
0.19402255        	-1.5844253630e+00
0.19426213        	-1.5845280215e+00
0.1945017         	-1.5843672340e+00
0.19474089        	-1.5839814764e+00
0.19497994        	-1.5834233304e+00
0.19521847        	-1.5827463658e+00
0.19545677        	-1.5820026021e+00
0.19569464        	-1.5812424584e+00
0.19593207        	-1.5805090868e+00
0.19616926        	-1.5798337163e+00
0.19640601        	-1.5792466906e+00
0.19664246        	-1.5787759339e+00
0.1968789         	-1.5784448364e+00
0.19711535        	-1.5782727978e+00
0.1973518         	-1.5782792971e+00
0.19758824        	-1.5784724053e+00
0.19782469        	-1.5788594020e+00
0.19806114        	-1.5794442090e+00
0.19829758        	-1.5802190928e+00
0.19853403        	-1.5811679452e+00
0.19877048        	-1.5822609169e+00
0.19900692        	-1.5834436797e+00
0.19924337        	-1.5846530252e+00
0.19947982        	-1.5858256870e+00
0.19971626        	-1.5868972404e+00
0.19995271        	-1.5878074604e+00
0.20019045        	-1.5885073281e+00
0.2004285         	-1.5889647750e+00
0.20066647        	-1.5891608960e+00
0.20090432        	-1.5891021248e+00
0.20114198        	-1.5888181363e+00
0.20137939        	-1.5883562994e+00
0.20161651        	-1.5877664843e+00
0.20185329        	-1.5870973162e+00
0.20208972        	-1.5863923960e+00
0.20232578        	-1.5856902510e+00
0.2025615         	-1.5850257236e+00
0.2027969         	-1.5844311729e+00
0.20303203        	-1.5839337999e+00
0.20326697        	-1.5835560044e+00
0.20350176        	-1.5833165279e+00
0.20373651        	-1.5832357545e+00
0.20397126        	-1.5833267250e+00
0.2042061         	-1.5835975112e+00
0.20444106        	-1.5840552722e+00
0.2046762         	-1.5846977633e+00
0.20491153        	-1.5855111926e+00
0.20514706        	-1.5864779998e+00
0.20538281        	-1.5875573132e+00
0.20561875        	-1.5886997346e+00
0.20585487        	-1.5898445499e+00
0.20609114        	-1.5909255540e+00
0.20632752        	-1.5918771363e+00
0.20656397        	-1.5926440945e+00
0.20680045        	-1.5931933161e+00
0.2070369         	-1.5935067278e+00
0.20727327        	-1.5935799815e+00
0.2075095         	-1.5934262442e+00
0.20774555        	-1.5930795415e+00
0.20798136        	-1.5925886206e+00
0.2082169         	-1.5920019974e+00
0.20845213        	-1.5913600593e+00
0.20868703        	-1.5906988085e+00
0.2089216         	-1.5900539787e+00
0.20915587        	-1.5894549488e+00
0.20938988        	-1.5889275496e+00
0.20962367        	-1.5884978330e+00
0.2098573         	-1.5881894652e+00
0.21009085        	-1.5880220353e+00
0.21032438        	-1.5880078889e+00
0.21055794        	-1.5881559014e+00
0.2107916         	-1.5884744321e+00
0.21102541        	-1.5889702022e+00
0.21125938        	-1.5896346172e+00
0.21149355        	-1.5904581029e+00
0.21172791        	-1.5914136395e+00
0.21196246        	-1.5924623129e+00
0.21219719        	-1.5935518707e+00
0.21243208        	-1.5946218545e+00
0.2126671         	-1.5956095151e+00
0.21290222        	-1.5964559513e+00
0.21313739        	-1.5971161969e+00
0.21337256        	-1.5975627988e+00
0.21360771        	-1.5977840506e+00
0.21384278        	-1.5977825863e+00
0.2140777         	-1.5975810716e+00
0.21431244        	-1.5972164795e+00
0.21454695        	-1.5967289762e+00
0.21478119        	-1.5961614361e+00
0.21501513        	-1.5955527505e+00
