# Solver information
# Time            	H2_solver         	H2_initial        	H2_final          	H2_iters          	H2_converged      	U_solver          	Ux_initial        	Ux_final          	Ux_iters          	Uy_initial        	Uy_final          	Uy_iters          	Uz_initial        	Uz_final          	Uz_iters          	U_converged       	k_solver          	k_initial         	k_final           	k_iters           	k_converged       	omega_solver      	omega_initial     	omega_final       	omega_iters       	omega_converged   	p_rgh_solver      	p_rgh_initial     	p_rgh_final       	p_rgh_iters       	p_rgh_converged   
1.200048e-05      	DILUPBiCGStab	1.0000000000e+00	1.9783278720e-04	1	true	smoothSolver	1.0000000000e+00	1.4317033790e-12	4	1.0000000000e+00	3.9057165290e-12	4	1.0000000000e+00	2.5697668590e-08	2	false	DILUPBiCGStab	1.0000000000e+00	4.4874394160e-10	2	true	DILUPBiCGStab	4.3062280500e-04	8.7683815650e-08	1	true	DICPCG	6.2312601720e-01	9.0772557400e-04	3	true
2.6401747e-05     	DILUPBiCGStab	7.2432859350e-02	1.0903123020e-05	1	true	smoothSolver	3.1355935900e-01	1.6928205100e-08	2	1.6717150370e-01	1.4362735320e-08	2	1.9603368860e-01	5.8157009770e-09	2	false	DILUPBiCGStab	5.5672337700e-01	8.3603867850e-08	1	true	DILUPBiCGStab	2.1213759410e-04	4.4414244350e-08	1	true	DICPCG	4.7114127470e-01	1.4823909400e-03	3	true
4.3683268e-05     	DILUPBiCGStab	4.4127336660e-02	9.8796941640e-06	1	true	smoothSolver	2.4295326120e-01	1.4106533380e-08	2	1.1940754690e-01	1.0184094930e-08	2	1.4682085890e-01	4.7516078120e-09	2	false	DILUPBiCGStab	3.4988606340e-01	7.5279463060e-08	1	true	DILUPBiCGStab	2.3325229740e-04	5.8913577140e-08	1	true	DICPCG	3.8590250360e-01	2.5129284960e-03	3	true
6.4421093e-05     	DILUPBiCGStab	3.3470353880e-02	1.1545488520e-05	1	true	smoothSolver	2.0216196620e-01	1.2199187960e-08	2	9.7179956130e-02	8.9086321330e-09	2	1.2250554210e-01	4.2302582240e-09	2	false	DILUPBiCGStab	2.5921024250e-01	7.9675348910e-08	1	true	DILUPBiCGStab	2.5274054010e-04	7.8106797450e-08	1	true	DICPCG	3.3524897800e-01	1.1836153200e-03	4	true
8.9305451e-05     	DILUPBiCGStab	2.7945667570e-02	1.5089413520e-05	1	true	smoothSolver	1.7284549140e-01	1.2582467420e-08	2	8.3729343600e-02	9.0678956090e-09	2	1.0772406700e-01	4.5198854220e-09	2	false	DILUPBiCGStab	2.1536387980e-01	9.4446121410e-08	1	true	DILUPBiCGStab	2.7904848850e-04	1.2794628820e-10	1	true	DICPCG	3.3837569840e-01	2.1707541400e-03	4	true
0.00011916519     	DILUPBiCGStab	2.4573691010e-02	2.0989150960e-05	1	true	smoothSolver	1.4846769730e-01	1.4514631090e-08	2	7.4411771390e-02	1.0326089070e-08	2	9.7663073030e-02	5.4457434140e-09	2	false	DILUPBiCGStab	1.9105903150e-01	7.5588981380e-10	2	true	DILUPBiCGStab	3.1226187890e-04	1.8480469590e-10	1	true	DICPCG	3.7839369680e-01	1.9730149730e-03	5	true
0.00015499046     	DILUPBiCGStab	2.2272338030e-02	2.9829005790e-05	1	true	smoothSolver	1.2518405040e-01	1.8061935190e-08	2	6.7342626120e-02	1.2632217300e-08	2	9.0238062730e-02	6.9915057670e-09	2	false	DILUPBiCGStab	1.7463652530e-01	1.1567146830e-09	2	true	DILUPBiCGStab	3.5300540550e-04	2.6980949600e-10	1	true	DICPCG	4.2086206330e-01	4.0710668700e-03	5	true
0.00019797152     	DILUPBiCGStab	2.0574650190e-02	4.2413696460e-05	1	true	smoothSolver	1.0092256540e-01	2.5623798460e-08	2	6.1861483750e-02	1.6857087160e-08	2	8.4523383650e-02	1.0174922050e-08	2	false	DILUPBiCGStab	1.6154134580e-01	1.8090089650e-09	2	true	DILUPBiCGStab	4.0152692960e-04	3.9948729950e-10	1	true	DICPCG	4.2930015870e-01	4.1531070980e-03	6	true
0.00024954879     	DILUPBiCGStab	1.9254817040e-02	5.7957527510e-05	1	true	smoothSolver	7.9870790120e-02	4.2978995560e-08	2	5.7394346580e-02	2.4595405370e-08	2	7.9791730210e-02	1.6832817660e-08	2	false	DILUPBiCGStab	1.4981721790e-01	2.8740178340e-09	2	true	DILUPBiCGStab	4.5540784420e-04	6.0947065950e-10	1	true	DICPCG	3.9874533080e-01	3.3682792080e-03	8	true
0.00031142873     	DILUPBiCGStab	1.8158188630e-02	7.8963083240e-05	1	true	smoothSolver	8.4872727190e-02	9.1314607610e-08	2	5.4637628940e-02	3.9074082070e-08	2	7.6507407260e-02	3.0582352870e-08	2	false	DILUPBiCGStab	1.3898733920e-01	4.6236380530e-09	2	true	DILUPBiCGStab	5.1668954590e-04	9.4360875540e-10	1	true	DICPCG	3.4181520040e-01	3.3788216780e-03	9	true
0.000385657       	DILUPBiCGStab	1.7199778450e-02	1.0635383510e-04	1	true	smoothSolver	1.2895389730e-01	8.0759873760e-11	4	5.2898491600e-02	6.8031623380e-08	2	7.4239140720e-02	5.9056787680e-08	2	false	DILUPBiCGStab	1.2959820930e-01	7.5130385130e-09	2	true	DILUPBiCGStab	5.8887141470e-04	1.4920332700e-09	1	true	DICPCG	2.7809332740e-01	2.1636916980e-03	12	true
0.00047475749     	DILUPBiCGStab	1.6315228330e-02	1.4274274100e-04	1	true	smoothSolver	2.0982770010e-01	2.6492815860e-10	4	5.2107342100e-02	3.9341999850e-11	4	7.2715121540e-02	3.4707774960e-11	4	false	DILUPBiCGStab	1.2568289210e-01	1.2383003890e-08	2	true	DILUPBiCGStab	6.7215016290e-04	2.4234558510e-09	1	true	DICPCG	2.7295704250e-01	1.7725843640e-03	15	true
0.00058165893     	DILUPBiCGStab	1.5497765990e-02	1.8963638100e-04	1	true	smoothSolver	2.8300800380e-01	6.8689642070e-10	4	4.9610901180e-02	8.5943471590e-11	4	6.9760287580e-02	8.3271720820e-11	4	false	DILUPBiCGStab	1.2720589040e-01	2.0667766300e-08	2	true	DILUPBiCGStab	7.7599178450e-04	4.0008960940e-09	1	true	DICPCG	2.8895755720e-01	2.4919220300e-03	18	true
0.00070994066     	DILUPBiCGStab	1.4777752410e-02	2.4993140300e-04	1	true	smoothSolver	2.5772199870e-01	1.2656034060e-09	4	4.4123333410e-02	1.8938968790e-10	4	6.4932454580e-02	1.9366180660e-10	4	false	DILUPBiCGStab	1.2667399300e-01	3.4488271650e-08	2	true	DILUPBiCGStab	8.6906037860e-04	6.6886891770e-09	1	true	DICPCG	3.8865848410e-01	3.4171444310e-03	21	true
0.00086387873     	DILUPBiCGStab	1.4134478930e-02	3.1828927630e-04	1	true	smoothSolver	1.8647039570e-01	2.0088018590e-09	4	3.5881718080e-02	3.9170963180e-10	4	5.9113631030e-02	4.0882189110e-10	4	false	DILUPBiCGStab	1.2375369550e-01	5.6578085600e-08	2	true	DILUPBiCGStab	9.5446815090e-04	1.1276428020e-08	1	true	DICPCG	4.4704304280e-01	4.2305226400e-03	24	true
0.0010484898      	DILUPBiCGStab	1.3585395410e-02	3.8688378210e-04	1	true	smoothSolver	1.2185892200e-01	3.5671356160e-09	4	2.5587287750e-02	7.6832223790e-10	4	5.3674912210e-02	8.3883298060e-10	4	false	DILUPBiCGStab	1.1853353570e-01	9.2611583980e-08	2	true	DILUPBiCGStab	1.0551688620e-03	2.0137598680e-08	1	true	DICPCG	4.4486511740e-01	3.9697453550e-03	28	true
0.0012698578      	DILUPBiCGStab	1.3171085160e-02	4.6304465400e-04	1	true	smoothSolver	6.8568835680e-02	7.0655751060e-09	4	1.5220398520e-02	1.7121777130e-09	4	5.0493796670e-02	1.7585532060e-09	4	false	DILUPBiCGStab	1.1291528990e-01	5.5173021770e-09	2	true	DILUPBiCGStab	1.1661431770e-03	3.3491861910e-08	1	true	DICPCG	4.0658875320e-01	3.3003481060e-03	35	true
0.0015352614      	DILUPBiCGStab	1.2907547570e-02	5.6655846810e-04	1	true	smoothSolver	7.8648880240e-02	1.7768902660e-08	4	1.8992577460e-02	4.3463646420e-09	4	5.6488224850e-02	4.2761924790e-09	4	false	DILUPBiCGStab	1.0754558510e-01	1.2542290120e-08	2	true	DILUPBiCGStab	1.2913986510e-03	6.1538714190e-08	1	true	DICPCG	3.3223983970e-01	2.9749321180e-03	42	true
0.0018539175      	DILUPBiCGStab	1.2800552530e-02	7.1441602420e-04	1	true	smoothSolver	1.6983608170e-01	5.3975014670e-08	4	3.6494109010e-02	1.2652431510e-08	4	6.8556757250e-02	1.1371903270e-08	4	false	DILUPBiCGStab	1.0380171160e-01	2.2163995980e-08	2	true	DILUPBiCGStab	1.4383066230e-03	3.1627400530e-09	2	true	DICPCG	2.6214114280e-01	2.2967964810e-03	50	true
0.0022358089      	DILUPBiCGStab	1.2760636570e-02	9.1998499760e-04	1	true	smoothSolver	2.7301413410e-01	1.4237448840e-09	6	5.4077574530e-02	4.5506793020e-08	4	7.6816796570e-02	2.9878831290e-08	4	false	DILUPBiCGStab	1.0138825020e-01	3.8469553980e-08	2	true	DILUPBiCGStab	1.5916473610e-03	6.9807227180e-09	2	true	DICPCG	2.9121340620e-01	2.8719269640e-03	52	true
0.0026863351      	DILUPBiCGStab	1.2565491370e-02	1.1399430580e-03	1	true	smoothSolver	2.6839614270e-01	4.8534920180e-09	6	6.3860592400e-02	1.1734464770e-09	6	7.9941485720e-02	6.8386310250e-08	4	false	DILUPBiCGStab	9.8188414320e-02	5.7778982530e-08	2	true	DILUPBiCGStab	1.7280880630e-03	3.2938499190e-08	2	true	DICPCG	3.3513875640e-01	3.2468522910e-03	54	true
0.003206729       	DILUPBiCGStab	1.2144216950e-02	8.6108447200e-05	1	true	smoothSolver	1.8530991010e-01	1.0260414810e-08	6	6.0744275130e-02	3.4212917600e-09	6	7.9633866170e-02	1.5058847520e-09	6	false	DILUPBiCGStab	9.3319118640e-02	8.5067972390e-08	2	true	DILUPBiCGStab	1.8443895450e-03	1.5331073100e-08	2	true	DICPCG	3.4389245550e-01	3.3445798420e-03	61	true
0.0037933549      	DILUPBiCGStab	1.1336534080e-02	8.9659985290e-05	1	true	smoothSolver	1.0784526930e-01	1.5573696710e-08	6	4.9839611790e-02	6.9251789960e-09	6	7.7557392310e-02	2.9439160710e-09	6	false	DILUPBiCGStab	8.6773845990e-02	1.1532399950e-08	3	true	DILUPBiCGStab	1.9278240970e-03	8.6230924300e-08	2	true	DICPCG	3.1598974750e-01	3.1222927310e-03	83	true
0.0043984282      	DILUPBiCGStab	9.8757463080e-03	9.7280671040e-04	1	true	smoothSolver	7.4209991430e-02	1.2627076800e-08	6	3.9312772800e-02	6.9618574190e-09	6	7.1225694890e-02	3.2858083960e-09	6	false	DILUPBiCGStab	7.5414410330e-02	1.2372311640e-08	3	true	DILUPBiCGStab	1.8688709940e-03	1.1494849750e-08	2	true	DICPCG	2.5669234490e-01	2.5053904260e-03	89	true
0.0049743412      	DILUPBiCGStab	8.2557553760e-03	6.4689556670e-04	1	true	smoothSolver	7.2667267590e-02	5.5707755700e-09	6	3.2700329200e-02	3.6600022770e-09	6	6.2113782390e-02	2.2741221490e-09	6	false	DILUPBiCGStab	6.2695207300e-02	9.9090520080e-09	3	true	DILUPBiCGStab	1.6975640970e-03	9.6362860420e-08	2	true	DICPCG	2.0008086690e-01	1.8830239200e-03	87	true
0.0055366233      	DILUPBiCGStab	7.1871105860e-03	4.7204106010e-04	1	true	smoothSolver	7.1055571470e-02	2.5479805790e-09	6	2.8406507400e-02	1.8329540550e-09	6	5.6100867620e-02	1.6737659260e-09	6	false	DILUPBiCGStab	5.4795442610e-02	9.0372780290e-09	3	true	DILUPBiCGStab	1.5858213420e-03	6.5035033290e-08	2	true	DICPCG	1.7358017300e-01	1.6601633720e-03	81	true
0.0061022722      	DILUPBiCGStab	6.5352606640e-03	3.8332283640e-04	1	true	smoothSolver	6.5818494580e-02	2.9198191260e-09	6	2.4526879270e-02	9.9935103710e-08	4	5.3022327610e-02	1.4901628900e-09	6	false	DILUPBiCGStab	5.0182131160e-02	1.2527321110e-08	3	true	DILUPBiCGStab	1.5222590550e-03	9.5153699710e-08	2	true	DICPCG	1.5996046460e-01	1.5476717100e-03	78	true
0.0066783319      	DILUPBiCGStab	6.1001265360e-03	3.3344573510e-04	1	true	smoothSolver	5.9607927210e-02	4.9146414830e-09	6	2.1441508240e-02	1.3723993180e-09	6	5.1392704200e-02	2.1003102460e-09	6	false	DILUPBiCGStab	4.7092149580e-02	3.7671835240e-08	3	true	DILUPBiCGStab	1.4811056850e-03	8.0615463690e-08	2	true	DICPCG	1.4775555010e-01	1.4500181380e-03	76	true
0.0072727374      	DILUPBiCGStab	5.8376672760e-03	3.0894254010e-04	1	true	smoothSolver	5.5055750420e-02	6.9342180050e-09	6	1.9315477900e-02	2.4164698130e-09	6	4.8761157130e-02	3.1181702760e-09	6	false	DILUPBiCGStab	4.5105346220e-02	1.2832649680e-08	3	true	DILUPBiCGStab	1.4582047810e-03	8.9589356610e-08	2	true	DICPCG	1.3656088730e-01	1.3223104340e-03	77	true
0.0078909192      	DILUPBiCGStab	5.6830746690e-03	3.0054954830e-04	1	true	smoothSolver	5.2397296780e-02	8.5817095800e-09	6	1.8098252100e-02	3.4292310240e-09	6	4.6809117280e-02	4.8394895730e-09	6	false	DILUPBiCGStab	4.3763927360e-02	1.0854098630e-08	3	true	DILUPBiCGStab	1.4463616290e-03	7.7029891380e-09	2	true	DICPCG	1.2480470640e-01	1.2184513360e-03	85	true
0.0085350386      	DILUPBiCGStab	5.5813781740e-03	2.9825134310e-04	1	true	smoothSolver	5.3231391250e-02	9.0914001860e-09	6	1.7663787480e-02	4.0082288790e-09	6	4.6121839480e-02	7.6192203230e-09	6	false	DILUPBiCGStab	4.2732166770e-02	1.0587996470e-08	3	true	DILUPBiCGStab	1.4377240160e-03	8.7510140420e-09	2	true	DICPCG	1.1277264230e-01	1.1032157700e-03	91	true
0.0091978282      	DILUPBiCGStab	5.4462622810e-03	2.8944474000e-04	1	true	smoothSolver	5.4941775930e-02	8.1528099800e-09	6	1.7624992310e-02	3.7206151510e-09	6	4.5015049200e-02	1.1293850700e-08	6	false	DILUPBiCGStab	4.1492699130e-02	1.0379197490e-08	3	true	DILUPBiCGStab	1.4192563610e-03	9.3917147920e-08	2	true	DICPCG	1.0051551410e-01	9.2532379100e-04	97	true
0.0098704369      	DILUPBiCGStab	5.2691391900e-03	2.7357032450e-04	1	true	smoothSolver	5.4212268710e-02	7.4435926380e-09	6	1.7786839770e-02	2.4849834070e-09	6	4.3470763520e-02	1.5227259610e-08	6	false	DILUPBiCGStab	4.0043602980e-02	1.1882695830e-08	3	true	DILUPBiCGStab	1.3921795520e-03	6.0583159070e-08	2	true	DICPCG	8.8792933750e-02	8.5692093750e-04	99	true
0.010538063       	DILUPBiCGStab	5.0130051960e-03	2.4585950510e-04	1	true	smoothSolver	5.0541287650e-02	7.1959693780e-09	6	1.7340868580e-02	1.1838288030e-09	6	4.1291776780e-02	1.7765947010e-08	6	false	DILUPBiCGStab	3.8294566280e-02	1.1567347380e-08	3	true	DILUPBiCGStab	1.3435652370e-03	5.3594782940e-08	2	true	DICPCG	7.7998055600e-02	7.4546500100e-04	100	true
0.01119107        	DILUPBiCGStab	4.7217493330e-03	2.1439099170e-04	1	true	smoothSolver	4.5814138010e-02	7.5904836890e-09	6	1.7037743050e-02	1.5479515120e-09	6	3.8804450940e-02	1.8625728140e-08	6	false	DILUPBiCGStab	3.6596216430e-02	7.8349887810e-09	3	true	DILUPBiCGStab	1.2853135340e-03	8.6303879560e-08	2	true	DICPCG	6.8781285510e-02	6.7846307710e-04	99	true
0.011820921       	DILUPBiCGStab	4.4046857630e-03	1.8163271540e-04	1	true	smoothSolver	4.0429922420e-02	7.5931808560e-09	6	1.6174407620e-02	1.9302014000e-09	6	3.6039053700e-02	1.7611002950e-08	6	false	DILUPBiCGStab	3.5038258090e-02	5.5851161940e-09	3	true	DILUPBiCGStab	1.2188781300e-03	8.2426648380e-09	2	true	DICPCG	6.1115585910e-02	5.8491447210e-04	98	true
0.012424887       	DILUPBiCGStab	4.0999274160e-03	1.5395520470e-04	1	true	smoothSolver	3.5361585550e-02	6.8749766010e-09	6	1.4428765570e-02	1.8429015180e-09	6	3.3178910660e-02	1.5671653480e-08	6	false	DILUPBiCGStab	3.3672858970e-02	5.3010397400e-09	3	true	DILUPBiCGStab	1.1553737870e-03	7.8753923080e-09	2	true	DICPCG	5.5351417840e-02	5.3143160490e-04	94	true
0.013001039       	DILUPBiCGStab	3.8085775070e-03	1.2943869590e-04	1	true	smoothSolver	3.1561071500e-02	5.8615142340e-09	6	1.2165201730e-02	1.4921952370e-09	6	3.0226726290e-02	1.3200157810e-08	6	false	DILUPBiCGStab	3.2416623360e-02	5.6856450280e-09	3	true	DILUPBiCGStab	1.0961773420e-03	9.2724893730e-09	2	true	DICPCG	5.1114953280e-02	4.9767514560e-04	91	true
0.013551665       	DILUPBiCGStab	3.5536328370e-03	1.1007910310e-04	1	true	smoothSolver	2.9634841910e-02	4.9362986180e-09	6	9.8508591170e-03	1.1385182890e-09	6	2.7397938370e-02	1.0954780230e-08	6	false	DILUPBiCGStab	3.1394530460e-02	5.0282973810e-09	3	true	DILUPBiCGStab	1.0464253690e-03	1.2797654040e-08	2	true	DICPCG	4.7745098040e-02	4.7032476790e-04	88	true
0.014075595       	DILUPBiCGStab	3.3097429540e-03	9.2956368750e-05	1	true	smoothSolver	2.8255561060e-02	4.0425319010e-09	6	7.6055727490e-03	9.5758588330e-08	4	2.4629185710e-02	8.7132649100e-09	6	false	DILUPBiCGStab	3.0411133880e-02	8.0669227200e-08	2	true	DILUPBiCGStab	9.9878801160e-04	3.0139420450e-08	2	true	DICPCG	4.4628418710e-02	4.1471322870e-04	84	true
0.014578077       	DILUPBiCGStab	3.1130153000e-03	8.0669210890e-05	1	true	smoothSolver	2.6988536680e-02	3.4806168430e-09	6	5.7344700530e-03	8.1442525150e-08	4	2.2281058290e-02	7.1160375280e-09	6	false	DILUPBiCGStab	2.9747518420e-02	7.0606401010e-08	2	true	DILUPBiCGStab	9.6204057890e-04	9.2837854970e-11	3	true	DICPCG	4.1930353580e-02	4.0461273680e-04	80	true
0.015057975       	DILUPBiCGStab	2.9225036450e-03	6.9471889110e-05	1	true	smoothSolver	2.5464124100e-02	2.9827939900e-09	6	4.9081690530e-03	7.0994751340e-08	4	2.0196383710e-02	5.6059355090e-09	6	false	DILUPBiCGStab	2.9100418630e-02	6.6204926360e-08	2	true	DILUPBiCGStab	9.2590032010e-04	7.0246520590e-08	2	true	DICPCG	3.9318340060e-02	3.7524759520e-04	77	true
0.015517121       	DILUPBiCGStab	2.7540538280e-03	6.0303421240e-05	1	true	smoothSolver	2.3957082420e-02	2.6041906590e-09	6	5.0689284180e-03	6.3491159480e-08	4	1.8866095930e-02	4.4054673550e-09	6	false	DILUPBiCGStab	2.8568972420e-02	6.3622054370e-08	2	true	DILUPBiCGStab	8.9439253840e-04	5.2453337470e-08	2	true	DICPCG	3.6882187330e-02	3.5509384690e-04	74	true
0.01595944        	DILUPBiCGStab	2.6176628310e-03	5.3474442670e-05	1	true	smoothSolver	2.2582374000e-02	2.3379133630e-09	6	5.3009653070e-03	5.8688048010e-08	4	1.7945663300e-02	3.5508758850e-09	6	false	DILUPBiCGStab	2.8278203250e-02	6.4675243810e-08	2	true	DILUPBiCGStab	8.7071172260e-04	3.8350767590e-08	2	true	DICPCG	3.4686725880e-02	3.2099768430e-04	71	true
0.016386042       	DILUPBiCGStab	2.4954228820e-03	4.7754053210e-05	1	true	smoothSolver	2.1238434910e-02	2.0840936000e-09	6	5.4480785540e-03	5.4615253710e-08	4	1.7142139020e-02	2.8441605020e-09	6	false	DILUPBiCGStab	2.8093468530e-02	6.8063972870e-08	2	true	DILUPBiCGStab	8.4938129880e-04	3.1725152530e-08	2	true	DICPCG	3.2585150240e-02	3.1983829930e-04	68	true
0.016799972       	DILUPBiCGStab	2.3968401350e-03	4.3514912160e-05	1	true	smoothSolver	2.0043586980e-02	1.8899206000e-09	6	5.6072656360e-03	5.2266112660e-08	4	1.6556639110e-02	2.3334097800e-09	6	false	DILUPBiCGStab	2.8007795310e-02	7.2250805790e-08	2	true	DILUPBiCGStab	8.3339870370e-04	3.0884923530e-08	2	true	DICPCG	3.0724563040e-02	2.9412023340e-04	67	true
0.017201905       	DILUPBiCGStab	2.3074895940e-03	3.9883677120e-05	1	true	smoothSolver	1.8904545070e-02	1.6945344190e-09	6	5.7637317690e-03	5.0320447350e-08	4	1.6086431780e-02	1.9066361500e-09	6	false	DILUPBiCGStab	2.7662176060e-02	7.3644514130e-08	2	true	DILUPBiCGStab	8.1867108080e-04	2.9750535460e-08	2	true	DICPCG	2.9191637350e-02	2.7207869980e-04	66	true
0.017592462       	DILUPBiCGStab	2.2261482150e-03	3.6745724920e-05	1	true	smoothSolver	1.7832781680e-02	1.5036411920e-09	6	5.9174557380e-03	4.8329101370e-08	4	1.5714001900e-02	1.5520148730e-09	6	false	DILUPBiCGStab	2.6902471660e-02	7.1331729130e-08	2	true	DILUPBiCGStab	8.0441580030e-04	2.7199946000e-08	2	true	DICPCG	2.8130581270e-02	2.6353817830e-04	65	true
0.017973978       	DILUPBiCGStab	2.1613314760e-03	3.4457329240e-05	1	true	smoothSolver	1.6904764070e-02	1.3568365510e-09	6	6.0286955370e-03	4.6750503080e-08	4	1.5447262870e-02	1.2916290930e-09	6	false	DILUPBiCGStab	2.6230749920e-02	7.0006445530e-08	2	true	DILUPBiCGStab	7.9405934120e-04	2.4052578470e-08	2	true	DICPCG	2.7319595560e-02	2.5218675820e-04	64	true
0.018348526       	DILUPBiCGStab	2.1107895220e-03	3.2837437240e-05	1	true	smoothSolver	1.6141202450e-02	1.2457121100e-09	6	6.0741832420e-03	4.5452780110e-08	4	1.5229424510e-02	1.1047701710e-09	6	false	DILUPBiCGStab	2.5650089960e-02	7.0560756400e-08	2	true	DILUPBiCGStab	7.8722467480e-04	2.1563738340e-08	2	true	DICPCG	2.6681551980e-02	2.6486577270e-04	62	true
0.018716326       	DILUPBiCGStab	2.0636915220e-03	3.1389701620e-05	1	true	smoothSolver	1.5474811290e-02	1.1340925140e-09	6	6.0301482670e-03	4.3543144840e-08	4	1.4983301310e-02	9.5318565360e-10	6	false	DILUPBiCGStab	2.5121375570e-02	7.1045668340e-08	2	true	DILUPBiCGStab	7.7995901940e-04	1.8355721410e-08	2	true	DICPCG	2.6133768360e-02	2.5582753310e-04	61	true
0.019079199       	DILUPBiCGStab	2.0280572190e-03	3.0417410720e-05	1	true	smoothSolver	1.5002068880e-02	1.0492997020e-09	6	5.9300419540e-03	4.2001354900e-08	4	1.4767991570e-02	9.7398677100e-08	4	false	DILUPBiCGStab	2.4717769230e-02	7.3795082800e-08	2	true	DILUPBiCGStab	7.7517490330e-04	1.6147118910e-08	2	true	DICPCG	2.5754515880e-02	2.5163913890e-04	60	true
0.019438847       	DILUPBiCGStab	2.0026137100e-03	2.9847974010e-05	1	true	smoothSolver	1.4726800120e-02	9.8565338600e-10	6	5.7862065740e-03	4.0841982470e-08	4	1.4592124130e-02	8.8291802880e-08	4	false	DILUPBiCGStab	2.4350368590e-02	7.7694689670e-08	2	true	DILUPBiCGStab	7.7281696490e-04	1.4316755350e-08	2	true	DICPCG	2.5557213720e-02	2.4784191160e-04	59	true
0.019795312       	DILUPBiCGStab	1.9778671660e-03	2.9296010670e-05	1	true	smoothSolver	1.4544483180e-02	9.1627229730e-10	6	5.5946703850e-03	3.9365821990e-08	4	1.4388010140e-02	7.9800465730e-08	4	false	DILUPBiCGStab	2.3828347630e-02	8.2731586540e-08	2	true	DILUPBiCGStab	7.6961917300e-04	1.3108636080e-08	2	true	DICPCG	2.5474303160e-02	2.4256433740e-04	55	true
0.020148637       	DILUPBiCGStab	1.9533572770e-03	2.8734681020e-05	1	true	smoothSolver	1.4433543590e-02	8.4264109320e-10	6	5.3796332150e-03	3.7789262570e-08	4	1.4151687100e-02	7.1993684480e-08	4	false	DILUPBiCGStab	2.3108324030e-02	8.7282139140e-08	2	true	DILUPBiCGStab	7.6582837680e-04	1.2846857190e-08	2	true	DICPCG	2.5468153320e-02	2.3703931950e-04	51	true
0.020501962       	DILUPBiCGStab	1.9451723880e-03	2.8845566850e-05	1	true	smoothSolver	1.4488326640e-02	8.0601125810e-10	6	5.2021684070e-03	3.7742656880e-08	4	1.4002788990e-02	6.7338057610e-08	4	false	DILUPBiCGStab	2.2452970690e-02	9.7469121100e-08	2	true	DILUPBiCGStab	7.6734378840e-04	1.3138446960e-08	2	true	DICPCG	2.5741521880e-02	2.4790496780e-04	49	true
0.020853723       	DILUPBiCGStab	1.9277363300e-03	2.8567052740e-05	1	true	smoothSolver	1.4541898560e-02	7.4312522570e-10	6	4.9957300420e-03	3.7237277810e-08	4	1.3775450740e-02	6.0953980960e-08	4	false	DILUPBiCGStab	2.1701941660e-02	2.9113170110e-09	3	true	DILUPBiCGStab	7.6500671980e-04	1.2574277470e-08	2	true	DICPCG	2.6079285710e-02	2.5740666130e-04	50	true
0.021205484       	DILUPBiCGStab	1.9173304910e-03	2.8554876030e-05	1	true	smoothSolver	1.4690242590e-02	6.9661724990e-10	6	4.7931706880e-03	3.8231124940e-08	4	1.3587973370e-02	5.5467851350e-08	4	false	DILUPBiCGStab	2.1019770170e-02	3.0138268480e-09	3	true	DILUPBiCGStab	7.6552123020e-04	1.1613066880e-08	2	true	DICPCG	2.6456085350e-02	2.4782040820e-04	54	true
0.021558823       	DILUPBiCGStab	1.9136195320e-03	2.8825396800e-05	1	true	smoothSolver	1.4922290020e-02	6.7055554360e-10	6	4.5947536810e-03	4.0971247550e-08	4	1.3447819890e-02	5.0715267820e-08	4	false	DILUPBiCGStab	2.0448462370e-02	3.1753742570e-09	3	true	DILUPBiCGStab	7.6816226000e-04	1.0960285010e-08	2	true	DICPCG	2.6852865510e-02	2.4753566580e-04	56	true
0.021912161       	DILUPBiCGStab	1.8997100170e-03	2.8654917290e-05	1	true	smoothSolver	1.5148315830e-02	6.6453201310e-10	6	4.3914074670e-03	4.3741799130e-08	4	1.3264693860e-02	4.4681541890e-08	4	false	DILUPBiCGStab	1.9834722000e-02	3.2085148010e-09	3	true	DILUPBiCGStab	7.6674641470e-04	1.0135682350e-08	2	true	DICPCG	2.7139717670e-02	2.5844393520e-04	56	true
0.022268727       	DILUPBiCGStab	1.9004438380e-03	2.9085280110e-05	1	true	smoothSolver	1.5503310530e-02	7.6279982440e-10	6	4.3252377600e-03	4.8347423410e-08	4	1.3240674460e-02	4.0338383480e-08	4	false	DILUPBiCGStab	1.9360932380e-02	3.3401797620e-09	3	true	DILUPBiCGStab	7.7079072960e-04	9.6771927940e-09	2	true	DICPCG	2.7499274900e-02	2.6758373670e-04	56	true
0.022626935       	DILUPBiCGStab	1.8905898650e-03	2.9065161020e-05	1	true	smoothSolver	1.5761346970e-02	8.5711132500e-10	6	4.3284664800e-03	5.1780875000e-08	4	1.3252549330e-02	3.5109754580e-08	4	false	DILUPBiCGStab	1.8839743700e-02	3.3721818900e-09	3	true	DILUPBiCGStab	7.7116147890e-04	9.1582397470e-09	2	true	DICPCG	2.7723215020e-02	2.6394569720e-04	56	true
0.02298681        	DILUPBiCGStab	1.8785193810e-03	2.8923630190e-05	1	true	smoothSolver	1.5966278460e-02	9.4706511950e-10	6	4.3099790820e-03	5.4590559580e-08	4	1.3311039280e-02	3.0766424500e-08	4	false	DILUPBiCGStab	1.8327333410e-02	3.3834478180e-09	3	true	DILUPBiCGStab	7.7120117080e-04	8.6571063740e-09	2	true	DICPCG	2.7870335020e-02	2.5694121810e-04	56	true
0.02335008        	DILUPBiCGStab	1.8728462670e-03	2.9055545240e-05	1	true	smoothSolver	1.6163046130e-02	1.0554976720e-09	6	4.4352869710e-03	5.8044208160e-08	4	1.3503240280e-02	2.8945463740e-08	4	false	DILUPBiCGStab	1.7902405800e-02	3.4920200950e-09	3	true	DILUPBiCGStab	7.7428809320e-04	8.4644976270e-09	2	true	DICPCG	2.8006333210e-02	2.5443331810e-04	56	true
0.02371508        	DILUPBiCGStab	1.8566246770e-03	2.8735891030e-05	1	true	smoothSolver	1.6225543860e-02	1.1228884280e-09	6	4.8364983880e-03	6.0081145560e-08	4	1.3848615410e-02	2.6762640500e-08	4	false	DILUPBiCGStab	1.7416856560e-02	3.5285027660e-09	3	true	DILUPBiCGStab	7.7393068120e-04	8.3520893910e-09	2	true	DICPCG	2.8023549420e-02	2.6574720640e-04	55	true
0.024081834       	DILUPBiCGStab	1.8387298650e-03	2.8324334680e-05	1	true	smoothSolver	1.6214401160e-02	1.1737075770e-09	6	5.2403143200e-03	6.1299094660e-08	4	1.4224554970e-02	2.4632204520e-08	4	false	DILUPBiCGStab	1.6932546590e-02	3.6209351160e-09	3	true	DILUPBiCGStab	7.7343380530e-04	8.6188315820e-09	2	true	DICPCG	2.7989963480e-02	2.7854384870e-04	54	true
0.024450369       	DILUPBiCGStab	1.8195204670e-03	2.7856377180e-05	1	true	smoothSolver	1.6134950090e-02	1.2046352670e-09	6	5.5813568690e-03	6.2042104760e-08	4	1.4591169330e-02	2.2799892180e-08	4	false	DILUPBiCGStab	1.6476298150e-02	3.7185439230e-09	3	true	DILUPBiCGStab	7.7285797220e-04	9.0099812760e-09	2	true	DICPCG	2.7907859330e-02	2.6536146390e-04	53	true
0.02482071        	DILUPBiCGStab	1.7994161020e-03	2.7358174090e-05	1	true	smoothSolver	1.5987407930e-02	1.2156187900e-09	6	5.8416801620e-03	6.2167727970e-08	4	1.4945079100e-02	2.2925529080e-08	4	false	DILUPBiCGStab	1.6008371140e-02	3.8379037780e-09	3	true	DILUPBiCGStab	7.7134801920e-04	9.3721496480e-09	2	true	DICPCG	2.7810005250e-02	2.7696317800e-04	50	true
0.025192885       	DILUPBiCGStab	1.7788555920e-03	2.6839593090e-05	1	true	smoothSolver	1.5784290850e-02	1.2077076920e-09	6	6.0127963200e-03	6.1759234680e-08	4	1.5289270260e-02	2.4127644860e-08	4	false	DILUPBiCGStab	1.5562406550e-02	4.0185017000e-09	3	true	DILUPBiCGStab	7.6943926950e-04	9.2824248010e-09	2	true	DICPCG	2.7736120700e-02	2.6466345210e-04	51	true
0.02556506        	DILUPBiCGStab	1.7498127840e-03	2.5961535440e-05	1	true	smoothSolver	1.5468125500e-02	1.1485181560e-09	6	6.0729020410e-03	5.9647228780e-08	4	1.5542230580e-02	2.4690883340e-08	4	false	DILUPBiCGStab	1.5073556410e-02	4.0660946460e-09	3	true	DILUPBiCGStab	7.6420433990e-04	8.7389275810e-09	2	true	DICPCG	2.7714421890e-02	2.5106179410e-04	54	true
0.025937234       	DILUPBiCGStab	1.7214155590e-03	2.5105145390e-05	1	true	smoothSolver	1.5128973380e-02	1.0766779330e-09	6	6.0482041250e-03	5.7878627420e-08	4	1.5765327480e-02	2.5041566760e-08	4	false	DILUPBiCGStab	1.4590670800e-02	4.0629429710e-09	3	true	DILUPBiCGStab	7.5889837590e-04	8.1081412960e-09	2	true	DICPCG	2.7748157100e-02	2.7402141570e-04	54	true
0.026309409       	DILUPBiCGStab	1.6940840120e-03	2.4303101010e-05	1	true	smoothSolver	1.4784987670e-02	9.9786223860e-10	6	5.9481532460e-03	5.7241437610e-08	4	1.5956854460e-02	2.5904507530e-08	4	false	DILUPBiCGStab	1.4134129090e-02	3.9878552090e-09	3	true	DILUPBiCGStab	7.5337900290e-04	7.3815940880e-09	2	true	DICPCG	2.7768711850e-02	2.5543334280e-04	55	true
0.026679713       	DILUPBiCGStab	1.6600643010e-03	2.3249269340e-05	1	true	smoothSolver	1.4427459730e-02	9.0214419120e-10	6	5.7591195090e-03	5.6692931080e-08	4	1.6046729280e-02	2.6286603750e-08	4	false	DILUPBiCGStab	1.3634875850e-02	3.8284829100e-09	3	true	DILUPBiCGStab	7.4454395930e-04	6.5633461020e-09	2	true	DICPCG	2.7724994020e-02	2.4746535430e-04	55	true
0.027048157       	DILUPBiCGStab	1.6280508080e-03	2.2291826720e-05	1	true	smoothSolver	1.4162379140e-02	8.7861844470e-10	6	5.5163791690e-03	5.6620641690e-08	4	1.6103830220e-02	2.6201401180e-08	4	false	DILUPBiCGStab	1.3152514380e-02	3.6681579530e-09	3	true	DILUPBiCGStab	7.3623314120e-04	5.8738113680e-09	2	true	DICPCG	2.7691568710e-02	2.7460931210e-04	54	true
0.027414749       	DILUPBiCGStab	1.5982392100e-03	2.1429732770e-05	1	true	smoothSolver	1.3948089870e-02	8.9966390830e-10	6	5.2300291000e-03	5.6723255300e-08	4	1.6134758410e-02	2.5716490270e-08	4	false	DILUPBiCGStab	1.2705547470e-02	3.5428626980e-09	3	true	DILUPBiCGStab	7.2884633200e-04	5.4050235190e-09	2	true	DICPCG	2.7662695610e-02	2.6537265430e-04	54	true
0.027777675       	DILUPBiCGStab	1.5630849900e-03	2.0382473600e-05	1	true	smoothSolver	1.3705233120e-02	9.0780908940e-10	6	4.8859695080e-03	5.5671044800e-08	4	1.6070441380e-02	2.4584961260e-08	4	false	DILUPBiCGStab	1.2215873320e-02	3.3479903400e-09	3	true	DILUPBiCGStab	7.1911948440e-04	5.0009920490e-09	2	true	DICPCG	2.7599071640e-02	2.4668623980e-04	54	true
0.028136991       	DILUPBiCGStab	1.5305292710e-03	1.9449255250e-05	1	true	smoothSolver	1.3471094580e-02	9.1952877570e-10	6	4.5220118900e-03	5.4699993350e-08	4	1.5993602420e-02	2.3280307720e-08	4	false	DILUPBiCGStab	1.1757855070e-02	3.1861224120e-09	3	true	DILUPBiCGStab	7.1002551430e-04	4.5944980210e-09	2	true	DICPCG	2.7583299350e-02	2.6505548050e-04	53	true
0.028492748       	DILUPBiCGStab	1.5004771810e-03	1.8623212220e-05	1	true	smoothSolver	1.3246067210e-02	9.2893867470e-10	6	4.1496485010e-03	5.3758269410e-08	4	1.5911518610e-02	2.1897435290e-08	4	false	DILUPBiCGStab	1.1324186080e-02	3.0683757060e-09	3	true	DILUPBiCGStab	7.0183323060e-04	4.2175912970e-09	2	true	DICPCG	2.7592636230e-02	2.5411571410e-04	53	true
0.028845          	DILUPBiCGStab	1.4727833490e-03	1.7881911070e-05	1	true	smoothSolver	1.3018171850e-02	9.3455904090e-10	6	3.7801391860e-03	5.2902031400e-08	4	1.5830341270e-02	2.0744523330e-08	4	false	DILUPBiCGStab	1.0913610380e-02	2.9818927920e-09	3	true	DILUPBiCGStab	6.9410036210e-04	9.8003929500e-08	2	true	DICPCG	2.7586983130e-02	2.7327387340e-04	52	true
0.029193799       	DILUPBiCGStab	1.4472830810e-03	1.7225224830e-05	1	true	smoothSolver	1.2788944790e-02	9.3375480130e-10	6	3.4410922550e-03	5.2295752320e-08	4	1.5761261940e-02	1.9985209940e-08	4	false	DILUPBiCGStab	1.0522073840e-02	2.9062490990e-09	3	true	DILUPBiCGStab	6.8692310880e-04	9.0369688210e-08	2	true	DICPCG	2.7542920760e-02	2.6873125260e-04	52	true
0.029539196       	DILUPBiCGStab	1.4237828860e-03	1.6652393000e-05	1	true	smoothSolver	1.2555131830e-02	9.2668206890e-10	6	3.2393376910e-03	5.2023871440e-08	4	1.5738743020e-02	1.9590041290e-08	4	false	DILUPBiCGStab	1.0147272830e-02	2.8253238140e-09	3	true	DILUPBiCGStab	6.8022214620e-04	8.4633367090e-08	2	true	DICPCG	2.7487741920e-02	2.7427844060e-04	51	true