# Region type :   sampledSurface planeZ4
# Faces           : 966
# Area            : 8.2959467460e-02
# Scale factor    : 1.0000000000e+00
# Time            	areaAverage(H2)
0.0021681777      	0.0000000000e+00
0.0099229098      	0.0000000000e+00
0.013672321       	5.8086532490e-300
0.015830949       	2.6187448488e-252
0.018084996       	2.2514074715e-218
0.020504472       	1.0321069633e-191
0.022937971       	1.8433953243e-171
0.025399178       	1.2765651877e-156
0.027896967       	8.7201359126e-146
0.030624273       	4.2504994657e-136
0.034931782       	2.9482450341e-118
0.040906243       	1.2828441124e-102
0.047715234       	1.8825335683e-89
0.052397469       	2.5041571225e-82
0.055749718       	6.5900928822e-78
0.058724445       	4.6241871520e-74
0.061408972       	1.6959516888e-70
0.064030542       	7.2732205290e-67
0.066859301       	6.4588293697e-63
0.069929382       	6.6979708974e-59
0.073448452       	1.0913556520e-54
0.077645508       	3.4202362906e-50
0.082343589       	8.3460220857e-46
0.086876095       	3.8355065449e-42
0.090763315       	2.3020191383e-39
0.094101884       	3.0962294271e-37
0.097212628       	1.9129772210e-35
0.1003125         	7.4323201140e-34
0.10353884        	1.8173940058e-32
0.10697101        	2.7865733999e-31
0.11039961        	2.4767388394e-30
0.11345542        	1.3132096345e-29
0.1162904         	6.0533431146e-29
0.11915104        	4.0274732144e-28
0.12217829        	5.8566165473e-27
0.12526373        	1.2637464835e-25
0.12820817        	2.2829926361e-24
0.13099586        	2.9907589468e-23
0.13374612        	3.0485955101e-22
0.13659966        	2.6197804192e-21
0.13967523        	1.9585049448e-20
0.14299138        	1.2136347024e-19
0.14646759        	6.1468922007e-19
0.15008981        	2.9522107011e-18
0.15387799        	1.5062346802e-17
0.15755623        	7.1469119088e-17
0.16083132        	2.8008493348e-16
0.16380175        	9.3344069984e-16
0.16670485        	2.9003269270e-15
0.16976335        	9.1548499446e-15
0.1730982         	3.0683085931e-14
0.17658314        	1.0571557586e-13
0.17994126        	3.5746170813e-13
0.18308748        	1.2274629119e-12
0.18609598        	4.4739345861e-12
0.18905428        	1.7202809873e-11
0.19197925        	6.5445123704e-11
0.19489589        	2.3137289671e-10
0.19781252        	7.2846007400e-10
0.20072401        	2.0174736796e-09
0.20366191        	5.0027618929e-09
0.20666789        	1.1487676694e-08
0.2096902         	2.4839718537e-08
0.21266311        	5.2006154453e-08
0.2155666         	1.0985630677e-07
0.21841093        	2.4314792187e-07
0.22119744        	5.6698165533e-07
0.22390632        	1.3459635807e-06
0.22651648        	3.0970217879e-06
0.22903841        	6.7144515833e-06
0.23151192        	1.3693592612e-05
0.23400096        	2.6633902019e-05
0.23657196        	5.0173961016e-05
0.2392785         	9.2859951230e-05
0.24211876        	1.6884804196e-04
0.24501799        	2.9834359962e-04
0.2478834         	5.0723829041e-04
0.25065977        	8.2525986641e-04
0.2533459         	1.2827677388e-03
0.25597698        	1.9082284253e-03
0.25860067        	2.7239129340e-03
0.26126027        	3.7403336016e-03
0.26399007        	4.9557190913e-03
0.2668064         	6.3595362539e-03
0.26970988        	7.9461774083e-03
0.27267817        	9.7225877279e-03
0.27567758        	1.1715919649e-02
0.27866696        	1.3964554067e-02
0.28163078        	1.6525268079e-02
0.28457188        	1.9444194618e-02
0.28753883        	2.2752815398e-02
0.29052783        	2.6335554073e-02
0.29353486        	2.9975135155e-02
0.29659202        	3.3449355052e-02
0.29969018        	3.6531123271e-02
0.30301934        	3.9276815222e-02
0.30658026        	4.1667092028e-02
0.31024889        	4.3757849508e-02
0.31382774        	4.5639043745e-02
0.31720839        	4.7373294557e-02
0.32041107        	4.8969590430e-02
0.32351278        	5.0401140046e-02
0.32660124        	5.1640285891e-02
0.32975261        	5.2676061349e-02
0.33300475        	5.3515117603e-02
0.33633829        	5.4171413890e-02
0.33966879        	5.4630647796e-02
0.34291084        	5.4827889871e-02
0.34603661        	5.4662630529e-02
0.34907161        	5.4040501620e-02
0.35206544        	5.2922643617e-02
0.35505201        	5.1367557070e-02
0.35803859        	4.9532311504e-02
0.36101915        	4.7619630807e-02
0.36398392        	4.5820722513e-02
0.36693606        	4.4294753579e-02
0.36988068        	4.3205889400e-02
0.37279146        	4.2738354429e-02
0.3756348         	4.3000251992e-02
0.37839435        	4.3867875073e-02
0.38107617        	4.4880150385e-02
0.38370256        	4.5305940901e-02
0.38629891        	4.4421597104e-02
0.38888402        	4.1884536452e-02
0.39149716        	3.7849671395e-02
0.39416154        	3.2807185925e-02
0.3968771         	2.7367138460e-02
0.39971551        	2.1981301823e-02
0.40256148        	1.7405511432e-02
0.40538378        	1.3972966166e-02
0.40814127        	1.1699985742e-02
0.41083253        	1.0403667433e-02
0.41348665        	9.9125682903e-03
0.41614424        	1.0145918214e-02
0.41884293        	1.1112588588e-02
0.42160484        	1.2869632636e-02
0.42443343        	1.5460951905e-02
0.42731746        	1.8880216801e-02
0.43024079        	2.3102719234e-02
0.43319313        	2.8150194916e-02
0.43616409        	3.4073209737e-02
0.43914012        	4.0820154939e-02
0.44211842        	4.8144982619e-02
0.44511191        	5.5623694790e-02
0.44815399        	6.2790694446e-02
0.45128517        	6.9269548028e-02
0.45452847        	7.4847797318e-02
0.45788651        	7.9533636672e-02
0.46134183        	8.3527921307e-02
0.46485175        	8.7096659085e-02
0.46833233        	9.0363245904e-02
0.47169653        	9.3223068756e-02
0.47493032        	9.5502678648e-02
0.47808918        	9.7097511963e-02
0.48125065        	9.7962159837e-02
0.48447018        	9.8056627047e-02
0.48775734        	9.7327913876e-02
0.49106617        	9.5729602656e-02
0.49437499        	9.3218779935e-02
0.49761383        	8.9873784853e-02
0.50078567        	8.5866375268e-02
0.50388467        	8.1514039888e-02
0.50692466        	7.7170179828e-02
0.50992624        	7.3135042625e-02
0.51290826        	6.9638808278e-02
0.5158791         	6.6874104224e-02
0.51883476        	6.5021664592e-02
0.52176342        	6.4246209068e-02
0.52465176        	6.4627400310e-02
0.52749056        	6.5963511350e-02
0.53027645        	6.7478339703e-02
0.53301315        	6.7776532491e-02
0.53570778        	6.5456317395e-02
0.53837232        	5.9952018922e-02
0.54102325        	5.1804210654e-02
0.54367819        	4.2305670571e-02
0.54635955        	3.2915358838e-02
0.54908392        	2.4815462758e-02
0.55185645        	1.8546950262e-02
0.55465972        	1.4082659906e-02
0.55745829        	1.1113886105e-02
0.56022304        	9.2632837196e-03
0.56294948        	8.2103674207e-03
0.5656483         	7.7450581373e-03
0.56834313        	7.7601754495e-03
0.57105618        	8.2317334293e-03
0.57380366        	9.1927627346e-03
0.57659978        	1.0708090103e-02
0.57945291        	1.2848091597e-02
0.58236347        	1.5671104991e-02
0.58531995        	1.9214092857e-02
0.58831216        	2.3495827625e-02
0.59130904        	2.8444808345e-02
0.59430592        	3.3920983741e-02
0.59736167        	3.9791686410e-02
0.6004717         	4.5711317908e-02
0.60366859        	5.1377012245e-02
0.60695476        	5.6516635323e-02
0.61031304        	6.1025916336e-02
0.61372087        	6.5038464189e-02
0.61714804        	6.8853591793e-02
0.62054119        	7.2737009298e-02
0.62385362        	7.6768965756e-02
0.6270846         	8.0856061371e-02
0.63027734        	8.4826605024e-02
0.633484          	8.8474692772e-02
0.63672862        	9.1555245754e-02
0.64000158        	9.3799730497e-02
0.64327649        	9.4936286403e-02
0.64652965        	9.4722058806e-02
0.6497426         	9.3038344953e-02
0.65289591        	9.0024531000e-02
0.65597902        	8.6082920252e-02
0.65899774        	8.1716462542e-02
0.66197123        	7.7395506111e-02
0.66491892        	7.3503265825e-02
0.6678488         	7.0352399934e-02
0.67075798        	6.8206575444e-02
0.67363698        	6.7273596185e-02
0.67647638        	6.7618835039e-02
0.67927519        	6.8949056422e-02
0.68204058        	7.0337370405e-02
0.68477551        	7.0228214525e-02
0.68748856        	6.7171860127e-02
0.69017919        	6.0768985490e-02
0.69286982        	5.1792969685e-02
0.69556046        	4.1825967413e-02
0.69825109        	3.2470134655e-02
0.70096629        	2.4657007597e-02
0.70374493        	1.8630348360e-02
0.70653268        	1.4367912933e-02
0.70930527        	1.1525894802e-02
0.71205475        	9.7377734211e-03
0.71478633        	8.7177036798e-03
0.7175134         	8.2823370505e-03
0.72024913        	8.3393291277e-03
0.72300504        	8.8683208714e-03
0.72579475        	9.9008430891e-03
0.72863287        	1.1497566040e-02
0.7315286         	1.3721530382e-02
0.73448394        	1.6614014729e-02
0.73748823        	2.0166880295e-02
0.7405252         	2.4311634882e-02
0.74358482        	2.8916924573e-02
0.74667606        	3.3812700732e-02
0.74982135        	3.8800291125e-02
0.75303368        	4.3649217107e-02
0.75630901        	4.8148172343e-02
0.75962826        	5.2191403832e-02
0.76297836        	5.5854582240e-02
0.76634396        	5.9354352763e-02
0.76969894        	6.2935513459e-02
0.77300314        	6.6741518021e-02
0.77624904        	7.0797748860e-02
0.77945958        	7.5024620899e-02
0.78267197        	7.9256396445e-02
0.78591085        	8.3236913198e-02
0.78914974        	8.6607638180e-02
0.79238862        	8.9034863317e-02
0.79562751        	9.0190339428e-02
0.79886639        	8.9816418635e-02
0.80204051        	8.7912370771e-02
0.80512294        	8.4816975684e-02
0.80813876        	8.0992809881e-02
0.81110328        	7.6933102002e-02
0.81403366        	7.3079721441e-02
0.81694003        	6.9803584062e-02
0.81982267        	6.7413132881e-02
0.82267734        	6.6148397800e-02
0.82550227        	6.6117199980e-02
0.82830018        	6.7127048246e-02
0.83107644        	6.8427804061e-02
0.83383381        	6.8599565709e-02
0.83657093        	6.6079247104e-02
0.83928785        	6.0177580499e-02
0.84199091        	5.1558650333e-02
0.8446957         	4.1826617298e-02
0.84742031        	3.2615977498e-02
0.85017381        	2.4940771305e-02
0.85294861        	1.9111243630e-02
0.85572727        	1.4973589128e-02
0.85849547        	1.2190753019e-02
0.86125132        	1.0425973994e-02
0.86399945        	9.4226030445e-03
0.86675358        	9.0142086180e-03
0.86951569        	9.1168152212e-03
0.87229362        	9.7087742965e-03
0.87510067        	1.0816960668e-02
0.8779515         	1.2496263581e-02
0.88085782        	1.4803648051e-02
0.8838261         	1.7767905403e-02
0.88684074        	2.1344306541e-02
0.88989684        	2.5442739244e-02
0.89297901        	2.9908157526e-02
0.89609945        	3.4589603675e-02
0.89921989        	3.9243615040e-02
0.90242625        	4.3818989853e-02
0.90568947        	4.8136057938e-02
0.90897543        	5.2112807398e-02
0.91228709        	5.5843603588e-02
0.91561845        	5.9504856460e-02
0.91893778        	6.3258620106e-02
0.9222184         	6.7207190222e-02
0.92545948        	7.1370928137e-02
0.92868634        	7.5674636258e-02
0.9319132         	7.9904195902e-02
0.93514194        	8.3735741531e-02
0.93836663        	8.6800915089e-02
0.9415829         	8.8758433368e-02
0.94478765        	8.9345527569e-02
0.94796546        	8.8453475167e-02
0.95109391        	8.6218929196e-02
0.95415861        	8.3000694066e-02
0.95716308        	7.9250621557e-02
0.96012052        	7.5424877828e-02
0.9630423         	7.1938534094e-02
0.9659349         	6.9148597351e-02
0.96879894        	6.7350622111e-02
0.97163694        	6.6748513953e-02
0.97445249        	6.7349724380e-02
0.97725256        	6.8741494608e-02
0.98004175        	6.9826766161e-02
0.98281373        	6.8914308243e-02
0.98556542        	6.4623787458e-02
0.98829445        	5.6933857447e-02
0.99101667        	4.7228892960e-02
0.99373889        	3.7439312986e-02
0.99646111        	2.8978431223e-02
0.99918333        	2.2370277280e-02
1.0019416         	1.7485783619e-02
1.0047115         	1.4087445456e-02
1.0074761         	1.1852514610e-02
1.0102387         	1.0488792315e-02
1.0130061         	9.7892289037e-03
1.0157793         	9.6269595836e-03
1.0185612         	9.9409431117e-03
1.0213592         	1.0725016354e-02
1.0241868         	1.2014893114e-02
1.0270586         	1.3869101419e-02
1.0299837         	1.6338808866e-02
1.032962          	1.9429062541e-02
1.0359865         	2.3081035582e-02
1.0390512         	2.7187250777e-02
1.0421569         	3.1612352166e-02
1.0453105         	3.6210825637e-02
1.0485096         	4.0822866915e-02
1.0517396         	4.5292643566e-02
1.0549875         	4.9522256702e-02
1.0582542         	5.3519236307e-02
1.0615442         	5.7380440971e-02
1.0648451         	6.1230962711e-02
1.0681317         	6.5174383556e-02
1.0713907         	6.9270173459e-02
1.0746275         	7.3503324092e-02
1.0778597         	7.7751007375e-02
1.0810919         	8.1754649048e-02
1.0843224         	8.5171417141e-02
1.0875219         	8.7632421058e-02
1.0907214         	8.8883463854e-02
1.0939209         	8.8751866714e-02
1.0971204         	8.7240304723e-02
1.1003075         	8.4561632889e-02
1.1033492         	8.1237941639e-02
1.1063392         	7.7631757369e-02
1.1092883         	7.4151092991e-02
1.1122026         	7.1170426404e-02
1.1150842         	6.9013679183e-02
1.1179364         	6.7935303755e-02
1.1207656         	6.8055745266e-02
1.1235793         	6.9186838899e-02
1.1263824         	7.0541480306e-02
1.1291753         	7.0571952314e-02
1.1319532         	6.7526006752e-02
1.1347117         	6.0740660282e-02
1.1374539         	5.1297285054e-02
1.1401912         	4.1213787322e-02
1.1429339         	3.2160224754e-02
1.1456912         	2.4895438650e-02
1.1484603         	1.9491357036e-02
1.1512313         	1.5691290217e-02
1.1539978         	1.3148944554e-02
1.1567607         	1.1552056560e-02
1.1595324         	1.0663707110e-02
1.1623119         	1.0331543778e-02
1.1651007         	1.0467746634e-02
1.1679001         	1.1040244522e-02
1.1707212         	1.2063544999e-02
1.1735763         	1.3585261778e-02
1.1764754         	1.5664064948e-02
1.1794225         	1.8336334146e-02
1.1824165         	2.1585002321e-02
1.1854546         	2.5339590285e-02
1.1885334         	2.9485112772e-02
1.1916591         	3.3894021540e-02
1.1948066         	3.8389969889e-02
1.1979541         	4.2816306623e-02
