# Solver information
# Time            	H2_solver         	H2_initial        	H2_final          	H2_iters          	H2_converged      	U_solver          	Ux_initial        	Ux_final          	Ux_iters          	Uy_initial        	Uy_final          	Uy_iters          	Uz_initial        	Uz_final          	Uz_iters          	U_converged       	k_solver          	k_initial         	k_final           	k_iters           	k_converged       	omega_solver      	omega_initial     	omega_final       	omega_iters       	omega_converged   	p_rgh_solver      	p_rgh_initial     	p_rgh_final       	p_rgh_iters       	p_rgh_converged   
1.200048e-05      	DILUPBiCGStab	1.0000000000e+00	1.2814470150e-04	1	true	smoothSolver	1.0000000000e+00	1.1718393890e-12	4	1.0000000000e+00	3.7168863470e-12	4	1.0000000000e+00	2.7626493830e-08	2	false	DILUPBiCGStab	1.0000000000e+00	5.1595486710e-10	2	true	DILUPBiCGStab	4.4681851690e-04	9.9147204920e-08	1	true	DICPCG	6.5064776920e-01	1.1516390280e-03	3	true
2.6401747e-05     	DILUPBiCGStab	7.4660258430e-02	1.1699762280e-05	1	true	smoothSolver	3.2163312750e-01	2.8406641940e-09	2	2.0884128700e-01	4.0607102480e-08	2	1.4362748040e-01	1.1118071110e-09	2	false	DILUPBiCGStab	5.6079662260e-01	8.7321121020e-08	1	true	DILUPBiCGStab	2.1677660290e-04	4.8382972840e-08	1	true	DICPCG	4.9506408050e-01	1.9459071210e-03	3	true
4.3683268e-05     	DILUPBiCGStab	4.5585810040e-02	8.6509076290e-06	1	true	smoothSolver	2.4717396660e-01	1.4164093470e-09	2	1.2994707250e-01	2.6430607720e-08	2	1.0487459370e-01	5.7732315680e-10	2	false	DILUPBiCGStab	3.5523852330e-01	7.9752120520e-08	1	true	DILUPBiCGStab	2.3125635440e-04	6.9545367720e-08	1	true	DICPCG	4.0320339390e-01	2.8136924870e-03	3	true
6.4421093e-05     	DILUPBiCGStab	3.4662351800e-02	8.8904553070e-06	1	true	smoothSolver	2.0064618060e-01	1.5780680580e-09	2	9.7825863400e-02	2.4250448890e-08	2	8.5497664250e-02	6.4764211270e-10	2	false	DILUPBiCGStab	2.6002790780e-01	8.4106551440e-08	1	true	DILUPBiCGStab	2.5462259870e-04	9.6157225660e-08	1	true	DICPCG	3.4202515390e-01	1.0604870480e-03	4	true
8.9305451e-05     	DILUPBiCGStab	2.9098735160e-02	9.9500583680e-06	1	true	smoothSolver	1.6393525920e-01	2.3265396930e-09	2	8.0272428460e-02	2.6723235690e-08	2	7.3425725960e-02	9.0538501830e-10	2	false	DILUPBiCGStab	2.1441251700e-01	9.9160986730e-08	1	true	DILUPBiCGStab	2.8449755340e-04	1.3925429180e-10	1	true	DICPCG	4.2171443740e-01	2.5948141000e-03	4	true
0.00011916519     	DILUPBiCGStab	2.5784766860e-02	1.1846297130e-05	1	true	smoothSolver	1.3076500200e-01	4.0872225280e-09	2	6.9569859800e-02	3.3646490870e-08	2	6.5300237710e-02	1.3723426170e-09	2	false	DILUPBiCGStab	1.8659903410e-01	7.8836064290e-10	2	true	DILUPBiCGStab	3.2274676620e-04	2.0543019590e-10	1	true	DICPCG	4.8469373030e-01	1.9861509080e-03	5	true
0.00015499046     	DILUPBiCGStab	2.3572177770e-02	1.4499214280e-05	1	true	smoothSolver	9.5323185580e-02	8.3103973280e-09	2	6.2988457240e-02	4.7092535320e-08	2	5.9507113750e-02	2.2411882070e-09	2	false	DILUPBiCGStab	1.6643295630e-01	1.2135629720e-09	2	true	DILUPBiCGStab	3.6913581510e-04	3.0821835810e-10	1	true	DICPCG	4.8539978450e-01	2.0774712780e-03	6	true
0.00019797152     	DILUPBiCGStab	2.1948934520e-02	1.7474387730e-05	1	true	smoothSolver	6.3266946670e-02	1.8902775940e-08	2	5.9231783550e-02	6.9628158070e-08	2	5.5346679080e-02	3.6893412270e-09	2	false	DILUPBiCGStab	1.5077914570e-01	1.9039322420e-09	2	true	DILUPBiCGStab	4.1769132290e-04	4.6848703620e-10	1	true	DICPCG	4.2201999470e-01	3.8735057850e-03	6	true
0.00024954879     	DILUPBiCGStab	2.0695831820e-02	2.0236520590e-05	1	true	smoothSolver	9.7277335800e-02	4.7032895520e-08	2	5.7730885760e-02	2.2848355680e-11	4	5.2302922910e-02	6.1857656050e-09	2	false	DILUPBiCGStab	1.3816815040e-01	3.0211778360e-09	2	true	DILUPBiCGStab	4.6973606020e-04	7.2157856510e-10	1	true	DICPCG	3.3917942540e-01	2.2797753040e-03	7	true
0.00031142873     	DILUPBiCGStab	1.9686673630e-02	2.5830386120e-05	1	true	smoothSolver	2.0598277140e-01	4.0157893790e-11	4	5.7888649680e-02	4.8244514680e-11	4	5.0955038410e-02	9.7525234240e-09	2	false	DILUPBiCGStab	1.2923139590e-01	4.8145912960e-09	2	true	DILUPBiCGStab	5.2928670080e-04	1.1256144890e-09	1	true	DICPCG	2.9950426950e-01	2.6095952840e-03	8	true
0.000385657       	DILUPBiCGStab	1.8758414060e-02	4.6767047950e-05	1	true	smoothSolver	3.4974159580e-01	1.1462287080e-10	4	5.9117880370e-02	9.9262293970e-11	4	4.9543896450e-02	1.9349239280e-08	2	false	DILUPBiCGStab	1.2545128520e-01	7.7591327620e-09	2	true	DILUPBiCGStab	6.1045972810e-04	1.7821530370e-09	1	true	DICPCG	2.9041036650e-01	2.0434202170e-03	10	true
0.00047475749     	DILUPBiCGStab	1.7828967810e-02	8.6435493240e-05	1	true	smoothSolver	3.0983154690e-01	2.1061770040e-10	4	6.2976848470e-02	2.0671580740e-10	4	4.5986492620e-02	2.4657688940e-08	2	false	DILUPBiCGStab	1.2548689480e-01	1.2734122030e-08	2	true	DILUPBiCGStab	7.1241955090e-04	2.8487251490e-09	1	true	DICPCG	3.9424000790e-01	2.7240129180e-03	12	true
0.00058165893     	DILUPBiCGStab	1.6960946850e-02	1.3202622880e-04	1	true	smoothSolver	2.0428631670e-01	3.6264109770e-10	4	6.7527202030e-02	4.3299181160e-10	4	3.9990356060e-02	5.6048431460e-08	2	false	DILUPBiCGStab	1.2497298670e-01	2.1040022100e-08	2	true	DILUPBiCGStab	7.7467448960e-04	4.6501480980e-09	1	true	DICPCG	5.2621183850e-01	5.1579367970e-03	13	true
0.00070994066     	DILUPBiCGStab	1.6141500140e-02	1.7355677450e-04	1	true	smoothSolver	1.2930580620e-01	7.1621820790e-10	4	7.1623229220e-02	8.9711120460e-10	4	3.2185937980e-02	5.1797331110e-08	2	false	DILUPBiCGStab	1.2115318760e-01	3.4677623350e-08	2	true	DILUPBiCGStab	8.6391700720e-04	7.6696247640e-09	1	true	DICPCG	5.6571740420e-01	4.0590209460e-03	15	true
0.00086387873     	DILUPBiCGStab	1.5350179020e-02	2.1003130370e-04	1	true	smoothSolver	7.6025053310e-02	1.5336769320e-09	4	7.3972266400e-02	1.7930750040e-09	4	2.6041006160e-02	6.8677996700e-08	2	false	DILUPBiCGStab	1.1601034740e-01	5.6935814220e-08	2	true	DILUPBiCGStab	9.5662881650e-04	1.2748794970e-08	1	true	DICPCG	5.1817454460e-01	4.8871649240e-03	16	true
0.0010484898      	DILUPBiCGStab	1.4564378650e-02	2.4093757100e-04	1	true	smoothSolver	1.0289807810e-01	3.3453671670e-09	4	7.4252515210e-02	3.4331250650e-09	4	4.1161252960e-02	1.3249865800e-10	4	false	DILUPBiCGStab	1.1104764510e-01	9.3669384870e-08	2	true	DILUPBiCGStab	1.0524696660e-03	2.1211077370e-08	1	true	DICPCG	4.1219049180e-01	3.2012880000e-03	22	true
0.0012698578      	DILUPBiCGStab	1.3786572470e-02	3.5514828300e-04	1	true	smoothSolver	1.8922199560e-01	8.0242769820e-09	4	7.1934997610e-02	6.6447683430e-09	4	6.2417499490e-02	4.7622800530e-10	4	false	DILUPBiCGStab	1.0716974670e-01	5.3390408860e-09	2	true	DILUPBiCGStab	1.1646944250e-03	3.5366726790e-08	1	true	DICPCG	3.1944249320e-01	2.7331511430e-03	27	true
0.0015352614      	DILUPBiCGStab	1.3011817740e-02	5.0619942330e-04	1	true	smoothSolver	2.3926833050e-01	2.0694931700e-08	4	6.9551264730e-02	1.3332987080e-08	4	8.1716734370e-02	1.6314664060e-09	4	false	DILUPBiCGStab	1.0502550820e-01	9.9727805540e-09	2	true	DILUPBiCGStab	1.3022511340e-03	5.9210663730e-08	1	true	DICPCG	3.6112393160e-01	3.4802692560e-03	30	true
0.0018539175      	DILUPBiCGStab	1.2311053640e-02	7.0643347800e-04	1	true	smoothSolver	2.0528667700e-01	4.6719423520e-08	4	7.1815877790e-02	2.5674125610e-08	4	9.3164066190e-02	4.6736324590e-09	4	false	DILUPBiCGStab	1.0380009040e-01	1.8523029440e-08	2	true	DILUPBiCGStab	1.4449259550e-03	9.9675183820e-08	1	true	DICPCG	4.6209115050e-01	4.4737875060e-03	33	true
0.0022358089      	DILUPBiCGStab	1.1690550970e-02	9.5250701980e-04	1	true	smoothSolver	1.5138593550e-01	9.5940275260e-08	4	7.5692272870e-02	4.1713383550e-08	4	8.9281012950e-02	9.3130812240e-09	4	false	DILUPBiCGStab	1.0177866620e-01	3.3613044920e-08	2	true	DILUPBiCGStab	1.5698015710e-03	5.6400141530e-09	2	true	DICPCG	4.9146780170e-01	4.8816153250e-03	38	true
0.0026947957      	DILUPBiCGStab	1.1232086670e-02	7.7086306710e-05	1	true	smoothSolver	1.1857887150e-01	2.2055064270e-09	6	7.7679140420e-02	8.1485308250e-08	4	7.9036934400e-02	1.6398053400e-08	4	false	DILUPBiCGStab	9.8878684350e-02	6.0073617750e-08	2	true	DILUPBiCGStab	1.6980673160e-03	9.9685660140e-09	2	true	DICPCG	4.5543469680e-01	4.0397211990e-03	48	true
0.0032353802      	DILUPBiCGStab	1.0537803080e-02	8.5385143970e-05	1	true	smoothSolver	2.3182181710e-01	6.0357331690e-09	6	7.4181848560e-02	1.8978699280e-09	6	8.7340332210e-02	2.7717558130e-08	4	false	DILUPBiCGStab	9.3955673190e-02	9.8900862660e-08	2	true	DILUPBiCGStab	1.7930676260e-03	1.6638445780e-08	2	true	DICPCG	3.5693925720e-01	3.4054593110e-03	64	true
0.0038556662      	DILUPBiCGStab	9.9002857980e-03	7.9883758760e-05	1	true	smoothSolver	3.2476371830e-01	1.1902164110e-08	6	6.6309060530e-02	3.4750587980e-09	6	8.6225183480e-02	5.1266297050e-08	4	false	DILUPBiCGStab	8.8115774740e-02	3.7246098440e-08	3	true	DILUPBiCGStab	1.8464255360e-03	2.5623771720e-08	2	true	DICPCG	3.0623493930e-01	2.9257818560e-03	84	true
0.0045523643      	DILUPBiCGStab	9.3617550810e-03	7.1182218440e-05	1	true	smoothSolver	2.5133366440e-01	1.2708055020e-08	6	5.7759105150e-02	4.4269666900e-09	6	7.9820768390e-02	9.8260775530e-08	4	false	DILUPBiCGStab	8.2633471430e-02	4.8500462400e-08	3	true	DILUPBiCGStab	1.8843286150e-03	3.6960221400e-08	2	true	DICPCG	3.3182362980e-01	3.3000117190e-03	89	true
0.0053283613      	DILUPBiCGStab	9.0055943190e-03	7.3719271310e-05	1	true	smoothSolver	1.5288586510e-01	1.0379444770e-08	6	5.0596748810e-02	4.4774363540e-09	6	7.3387728670e-02	2.3419389040e-09	6	false	DILUPBiCGStab	7.7761633180e-02	5.2075814410e-08	3	true	DILUPBiCGStab	1.9141948440e-03	5.1781809940e-08	2	true	DICPCG	3.2892351430e-01	3.1038063330e-03	97	true
0.0061444961      	DILUPBiCGStab	8.3906486030e-03	8.1506889820e-04	1	true	smoothSolver	9.4203258600e-02	1.3705242120e-08	6	4.5093256420e-02	4.4867819470e-09	6	6.7049323430e-02	6.5228878680e-09	6	false	DILUPBiCGStab	6.9513057530e-02	4.6574731480e-08	3	true	DILUPBiCGStab	1.8521040360e-03	5.7779736550e-08	2	true	DICPCG	2.7825585580e-01	2.7393123490e-03	98	true
0.0069900412      	DILUPBiCGStab	7.9045941490e-03	7.2107741860e-04	1	true	smoothSolver	1.1769088290e-01	3.7221269760e-08	6	4.0487605630e-02	7.0818003740e-09	6	6.6937518350e-02	1.4772714320e-08	6	false	DILUPBiCGStab	6.2855050210e-02	4.1205427500e-08	3	true	DILUPBiCGStab	1.7780462070e-03	6.0547266030e-08	2	true	DICPCG	2.0911956660e-01	2.0085184440e-03	104	true
0.0078512445      	DILUPBiCGStab	7.4501370250e-03	6.4774368390e-04	1	true	smoothSolver	1.3912469640e-01	6.4720578320e-08	6	3.5493736560e-02	1.0556533430e-08	6	6.2174985980e-02	2.4936377300e-08	6	false	DILUPBiCGStab	5.7461793340e-02	3.7355085050e-08	3	true	DILUPBiCGStab	1.7053859030e-03	6.1034911150e-08	2	true	DICPCG	1.5978755770e-01	1.4764912740e-03	110	true
0.0087124478      	DILUPBiCGStab	6.9781494550e-03	5.7453617270e-04	1	true	smoothSolver	1.1937398740e-01	7.3000895220e-08	6	3.0527059370e-02	1.2898679100e-08	6	5.5523652980e-02	3.4638541650e-08	6	false	DILUPBiCGStab	5.2994833020e-02	3.4558524160e-08	3	true	DILUPBiCGStab	1.6388203410e-03	5.9939393510e-08	2	true	DICPCG	1.4288849280e-01	1.4175160520e-03	109	true
0.0094860712      	DILUPBiCGStab	5.9660357130e-03	3.9771551120e-04	1	true	smoothSolver	7.8632748850e-02	4.2238630690e-08	6	2.4143230950e-02	8.5954513840e-09	6	4.5031757320e-02	2.6203012270e-08	6	false	DILUPBiCGStab	4.5291618920e-02	2.6856009120e-08	3	true	DILUPBiCGStab	1.4618777360e-03	4.1560702170e-08	2	true	DICPCG	1.2331090530e-01	1.2149169250e-03	99	true
0.010128014       	DILUPBiCGStab	4.7676331360e-03	2.2685099330e-04	1	true	smoothSolver	4.8734797960e-02	1.4909208620e-08	6	1.8074499870e-02	3.4281523320e-09	6	3.4985088540e-02	1.1983862610e-08	6	false	DILUPBiCGStab	3.6664821670e-02	5.8954757950e-08	2	true	DILUPBiCGStab	1.2329111070e-03	2.2310992670e-08	2	true	DICPCG	9.7989527570e-02	9.6409278960e-04	84	true
0.010682779       	DILUPBiCGStab	3.9887050280e-03	1.4424313280e-04	1	true	smoothSolver	4.1457950360e-02	6.2304817970e-09	6	1.4292435330e-02	1.5789361300e-09	6	2.9426017370e-02	6.2497507800e-09	6	false	DILUPBiCGStab	3.1212581950e-02	2.9607206310e-08	2	true	DILUPBiCGStab	1.0847077290e-03	1.4157898800e-08	2	true	DICPCG	7.7868026710e-02	7.1934298980e-04	76	true
0.011160411       	DILUPBiCGStab	3.3505129280e-03	9.2385239370e-05	1	true	smoothSolver	3.6359445220e-02	2.4583172020e-09	6	1.1299294130e-02	8.0629828500e-08	4	2.4750396290e-02	3.0312249870e-09	6	false	DILUPBiCGStab	2.6710424100e-02	1.4918084890e-08	2	true	DILUPBiCGStab	9.5533895760e-04	9.5749418120e-09	2	true	DICPCG	6.2615334230e-02	5.4960467800e-04	69	true
0.011581452       	DILUPBiCGStab	2.8952247230e-03	6.3706172850e-05	1	true	smoothSolver	2.9342191800e-02	1.0635387210e-09	6	9.1293980050e-03	4.5722153100e-08	4	2.1200801620e-02	1.6129897360e-09	6	false	DILUPBiCGStab	2.3463382470e-02	8.4310710950e-09	2	true	DILUPBiCGStab	8.6145871290e-04	7.6743362190e-09	2	true	DICPCG	5.3774883860e-02	5.3506061500e-04	61	true
0.011960931       	DILUPBiCGStab	2.5666416720e-03	4.6433282790e-05	1	true	smoothSolver	2.2532964430e-02	7.6215139770e-08	4	7.5236707700e-03	2.7805541750e-08	4	1.8527904730e-02	9.4888872460e-10	6	false	DILUPBiCGStab	2.1123086030e-02	5.3038132730e-09	2	true	DILUPBiCGStab	7.9377853560e-04	6.7901120870e-09	2	true	DICPCG	4.8018687980e-02	4.7287390490e-04	56	true
0.012307541       	DILUPBiCGStab	2.3117053710e-03	3.5165000150e-05	1	true	smoothSolver	1.7192579670e-02	4.5466919800e-08	4	6.2719998800e-03	1.7730321580e-08	4	1.6525463530e-02	8.3181903060e-08	4	false	DILUPBiCGStab	1.9303828720e-02	3.6202303630e-09	2	true	DILUPBiCGStab	7.4080886350e-04	6.3799826430e-09	2	true	DICPCG	4.3186494320e-02	4.0881405300e-04	52	true
0.012627587       	DILUPBiCGStab	2.1086673150e-03	2.7645488270e-05	1	true	smoothSolver	1.3937164660e-02	2.9061198590e-08	4	5.2787038300e-03	1.1830433950e-08	4	1.5083042620e-02	6.0146642870e-08	4	false	DILUPBiCGStab	1.7897737580e-02	2.6721514230e-09	2	true	DILUPBiCGStab	6.9834844340e-04	6.0246497040e-09	2	true	DICPCG	3.9254263580e-02	3.4942871890e-04	49	true
0.012927836       	DILUPBiCGStab	1.9566260590e-03	2.2849472780e-05	1	true	smoothSolver	1.2932937680e-02	2.0275268300e-08	4	4.5071681990e-03	8.4700930220e-09	4	1.4010076370e-02	4.6398269080e-08	4	false	DILUPBiCGStab	1.6892183390e-02	2.1784498540e-09	2	true	DILUPBiCGStab	6.6798663330e-04	6.0647270350e-09	2	true	DICPCG	3.6247765650e-02	3.4591518590e-04	46	true
0.013211458       	DILUPBiCGStab	1.8301219620e-03	1.9269722240e-05	1	true	smoothSolver	1.1901865720e-02	1.4582858080e-08	4	3.8835958900e-03	6.1975302690e-09	4	1.3047827300e-02	3.6708144470e-08	4	false	DILUPBiCGStab	1.6088021970e-02	1.8472029540e-09	2	true	DILUPBiCGStab	6.4274557850e-04	6.1102144550e-09	2	true	DICPCG	3.3909918840e-02	3.3252158360e-04	43	true
0.013481828       	DILUPBiCGStab	1.7289728450e-03	1.6671629530e-05	1	true	smoothSolver	1.0612857550e-02	1.0916683500e-08	4	3.3952861290e-03	4.6965520960e-09	4	1.2225871900e-02	3.0138382760e-08	4	false	DILUPBiCGStab	1.5492814890e-02	9.6588584080e-08	2	true	DILUPBiCGStab	6.2323356220e-04	6.1566323710e-09	2	true	DICPCG	3.2254634100e-02	2.9625167650e-04	42	true
0.013741642       	DILUPBiCGStab	1.6478967060e-03	1.4769044330e-05	1	true	smoothSolver	9.2783869080e-03	8.4789046450e-09	4	3.0112724150e-03	3.6679174850e-09	4	1.1541140340e-02	2.5576421190e-08	4	false	DILUPBiCGStab	1.5066482440e-02	9.7790169680e-08	2	true	DILUPBiCGStab	6.0843174500e-04	6.3087858500e-09	2	true	DICPCG	3.0943491650e-02	3.0246286520e-04	40	true
0.013993124       	DILUPBiCGStab	1.5830574910e-03	1.3384189030e-05	1	true	smoothSolver	8.1252091060e-03	6.8311813190e-09	4	2.7348635350e-03	2.9401891860e-09	4	1.1006082070e-02	2.2370994620e-08	4	false	DILUPBiCGStab	1.4778754610e-02	1.8948336500e-09	2	true	DILUPBiCGStab	5.9684189750e-04	6.6467728670e-09	2	true	DICPCG	2.9819660520e-02	2.8820060680e-04	39	true
0.014237462       	DILUPBiCGStab	1.5274281230e-03	1.2277107590e-05	1	true	smoothSolver	7.3387877970e-03	5.6228073050e-09	4	2.5170737410e-03	2.3760819810e-09	4	1.0574122190e-02	1.9848260230e-08	4	false	DILUPBiCGStab	1.4567867220e-02	2.5049747220e-09	2	true	DILUPBiCGStab	5.8573711250e-04	7.3092338520e-09	2	true	DICPCG	2.8764532890e-02	2.7127930920e-04	38	true
0.014476355       	DILUPBiCGStab	1.4837185310e-03	1.1474798280e-05	1	true	smoothSolver	6.9479156870e-03	4.7720931840e-09	4	2.3343510810e-03	1.9637436220e-09	4	1.0240840970e-02	1.8076239720e-08	4	false	DILUPBiCGStab	1.4463987710e-02	4.0540113060e-09	2	true	DILUPBiCGStab	5.7728282230e-04	8.0449397860e-09	2	true	DICPCG	2.7905975000e-02	2.4600337770e-04	38	true
0.014710666       	DILUPBiCGStab	1.4464838040e-03	1.0823150010e-05	1	true	smoothSolver	6.5730198110e-03	4.1333361750e-09	4	2.1776450330e-03	1.6485113810e-09	4	9.9613879510e-03	1.6656142430e-08	4	false	DILUPBiCGStab	1.4416900490e-02	9.7400151650e-09	2	true	DILUPBiCGStab	5.7003059360e-04	8.1297505610e-09	2	true	DICPCG	2.7216380180e-02	2.6708288020e-04	37	true
0.014941178       	DILUPBiCGStab	1.4149971010e-03	1.0299577480e-05	1	true	smoothSolver	6.1438736430e-03	3.6580004550e-09	4	2.0418571070e-03	1.4031637730e-09	4	9.7303889140e-03	1.5517577420e-08	4	false	DILUPBiCGStab	1.4412160460e-02	2.1697525260e-08	2	true	DILUPBiCGStab	5.6385456130e-04	7.6470816420e-09	2	true	DICPCG	2.6601670740e-02	2.4972531130e-04	37	true
0.015169218       	DILUPBiCGStab	1.3923408740e-03	9.9689264950e-06	1	true	smoothSolver	5.7309426680e-03	3.3111391050e-09	4	1.9285782490e-03	1.2219159800e-09	4	9.5764790120e-03	1.4793073000e-08	4	false	DILUPBiCGStab	1.4483762840e-02	5.0245685700e-09	2	true	DILUPBiCGStab	5.6003398950e-04	6.9342600130e-09	2	true	DICPCG	2.6084736390e-02	2.4514766860e-04	37	true
0.015395433       	DILUPBiCGStab	1.3742551330e-03	9.7380337020e-06	1	true	smoothSolver	5.3681296330e-03	3.1009553760e-09	4	1.8308731680e-03	1.0710254800e-09	4	9.4733550800e-03	1.4241012720e-08	4	false	DILUPBiCGStab	1.4596182810e-02	2.8502972930e-09	2	true	DILUPBiCGStab	5.5714090130e-04	5.7276854070e-09	2	true	DICPCG	2.5601670200e-02	2.4756945070e-04	37	true
0.015620445       	DILUPBiCGStab	1.3604594450e-03	9.5952464410e-06	1	true	smoothSolver	5.1151956140e-03	3.1255797930e-09	4	1.7479774920e-03	9.6115886500e-10	4	9.4192770970e-03	1.3842144180e-08	4	false	DILUPBiCGStab	1.4750046030e-02	9.5065308920e-08	2	true	DILUPBiCGStab	5.5517730150e-04	4.9451789020e-09	2	true	DICPCG	2.5165508890e-02	2.2664996290e-04	38	true
0.015844859       	DILUPBiCGStab	1.3507670960e-03	9.5356128960e-06	1	true	smoothSolver	5.0462690510e-03	3.3820199060e-09	4	1.6815850640e-03	8.9065990930e-10	4	9.4052634920e-03	1.3581637670e-08	4	false	DILUPBiCGStab	1.4937653010e-02	8.9559476500e-08	2	true	DILUPBiCGStab	5.5316977240e-04	7.5445992520e-09	2	true	DICPCG	2.4765797090e-02	2.3342924190e-04	38	true
0.016069273       	DILUPBiCGStab	1.3450604510e-03	9.5572312510e-06	1	true	smoothSolver	5.0779923250e-03	3.7368261450e-09	4	1.6471989660e-03	8.6736790740e-10	4	9.4188331500e-03	1.3454128820e-08	4	false	DILUPBiCGStab	1.5151410430e-02	9.2081877080e-08	2	true	DILUPBiCGStab	5.5123575600e-04	1.3741651150e-08	2	true	DICPCG	2.4411432990e-02	2.3334558390e-04	39	true
0.016294288       	DILUPBiCGStab	1.3432907120e-03	9.6593303240e-06	1	true	smoothSolver	5.1308637050e-03	4.1511715710e-09	4	1.7056566520e-03	9.2176792900e-10	4	9.4576733470e-03	1.3466112450e-08	4	false	DILUPBiCGStab	1.5397790730e-02	9.7765051440e-08	2	true	DILUPBiCGStab	5.5013313640e-04	2.7401259110e-08	2	true	DICPCG	2.4112070390e-02	2.2037040520e-04	40	true
0.01652052        	DILUPBiCGStab	1.3454770740e-03	9.8458330130e-06	1	true	smoothSolver	5.2133374460e-03	4.6382695730e-09	4	1.7969098880e-03	1.0372461250e-09	4	9.5218447330e-03	1.3616957020e-08	4	false	DILUPBiCGStab	1.5673595450e-02	2.1754034890e-09	2	true	DILUPBiCGStab	5.5085875460e-04	3.5703571080e-08	2	true	DICPCG	2.3878093130e-02	2.1807819950e-04	41	true
0.016748606       	DILUPBiCGStab	1.3517033490e-03	1.0120641360e-05	1	true	smoothSolver	5.3451410710e-03	5.2138786900e-09	4	1.9058016200e-03	1.2188221400e-09	4	9.6117590420e-03	1.3913577640e-08	4	false	DILUPBiCGStab	1.5988214590e-02	2.3613342070e-09	2	true	DILUPBiCGStab	5.5293040640e-04	1.7449393370e-08	2	true	DICPCG	2.3710845390e-02	2.3590666870e-04	42	true
0.016979219       	DILUPBiCGStab	1.3621268590e-03	1.0495296500e-05	1	true	smoothSolver	5.5311742090e-03	5.8964251930e-09	4	2.0276189680e-03	1.4945942170e-09	4	9.7276567050e-03	1.4359660460e-08	4	false	DILUPBiCGStab	1.6330948620e-02	2.5128356040e-09	2	true	DILUPBiCGStab	5.5478920580e-04	3.5564570990e-08	2	true	DICPCG	2.3615937040e-02	2.1763562400e-04	43	true
0.01721308        	DILUPBiCGStab	1.3769846840e-03	1.0983213550e-05	1	true	smoothSolver	5.7723242030e-03	6.7027710460e-09	4	2.1449090090e-03	1.8201748660e-09	4	9.8690652390e-03	1.4971045710e-08	4	false	DILUPBiCGStab	1.6651034120e-02	2.6533721900e-09	2	true	DILUPBiCGStab	5.5716612730e-04	1.8571035700e-08	2	true	DICPCG	2.3609788150e-02	2.3387102180e-04	44	true
0.017450292       	DILUPBiCGStab	1.3926679810e-03	1.1509962650e-05	1	true	smoothSolver	6.0360226770e-03	7.5518053800e-09	4	2.2466219520e-03	2.1532015980e-09	4	1.0007034270e-02	1.5562624630e-08	4	false	DILUPBiCGStab	1.6887960240e-02	2.7313176640e-09	2	true	DILUPBiCGStab	5.5895987970e-04	2.9499408310e-08	2	true	DICPCG	2.3675404640e-02	2.2309507360e-04	45	true
0.017691665       	DILUPBiCGStab	1.4132104390e-03	1.2175647540e-05	1	true	smoothSolver	6.3144408780e-03	8.5400730900e-09	4	2.3340658390e-03	2.5174814970e-09	4	1.0165617430e-02	1.6372431980e-08	4	false	DILUPBiCGStab	1.6988426930e-02	2.7366038960e-09	2	true	DILUPBiCGStab	5.6250405930e-04	1.4779161470e-08	2	true	DICPCG	2.3870396150e-02	2.2891970270e-04	46	true
0.017937362       	DILUPBiCGStab	1.4348410120e-03	1.2901682500e-05	1	true	smoothSolver	6.5744230620e-03	9.5528951660e-09	4	2.3984339130e-03	2.8779130400e-09	4	1.0315773060e-02	1.7267763230e-08	4	false	DILUPBiCGStab	1.7035252470e-02	2.7383343430e-09	2	true	DILUPBiCGStab	5.6726166780e-04	1.1213295980e-08	2	true	DICPCG	2.4148013790e-02	2.3269420690e-04	47	true
0.018188318       	DILUPBiCGStab	1.4619205310e-03	1.3809477630e-05	1	true	smoothSolver	6.8280633340e-03	1.0749436110e-08	4	2.4448020880e-03	3.2742510480e-09	4	1.0485985210e-02	1.8429462550e-08	4	false	DILUPBiCGStab	1.7111379830e-02	2.7725251730e-09	2	true	DILUPBiCGStab	5.7400891810e-04	9.1096959780e-09	2	true	DICPCG	2.4600477950e-02	2.2468081380e-04	48	true
0.018443979       	DILUPBiCGStab	1.4858912280e-03	1.4685042800e-05	1	true	smoothSolver	7.0378567810e-03	1.1776380900e-08	4	2.4594723120e-03	3.5988999800e-09	4	1.0615906450e-02	1.9307432140e-08	4	false	DILUPBiCGStab	1.7120458020e-02	2.7875902950e-09	2	true	DILUPBiCGStab	5.7996343340e-04	7.7168716450e-09	2	true	DICPCG	2.5127836240e-02	2.4860195210e-04	48	true
0.018705377       	DILUPBiCGStab	1.5156614860e-03	1.5776123570e-05	1	true	smoothSolver	7.2446217830e-03	1.2940091080e-08	4	2.4614733950e-03	3.9500137940e-09	4	1.0766443060e-02	2.0440457240e-08	4	false	DILUPBiCGStab	1.7184131750e-02	2.9966437060e-09	2	true	DILUPBiCGStab	5.8818012910e-04	7.0462365560e-09	2	true	DICPCG	2.5809603660e-02	2.1474094360e-04	50	true
0.018971917       	DILUPBiCGStab	1.5419204200e-03	1.6829868910e-05	1	true	smoothSolver	7.4000837820e-03	1.3820086150e-08	4	2.4374269780e-03	4.2017257440e-09	4	1.0874065800e-02	2.1275547760e-08	4	false	DILUPBiCGStab	1.7206289100e-02	3.2404674400e-09	2	true	DILUPBiCGStab	5.9521112690e-04	6.6627230910e-09	2	true	DICPCG	2.6483737460e-02	2.4111418600e-04	50	true
0.019243823       	DILUPBiCGStab	1.5691563170e-03	1.7979134120e-05	1	true	smoothSolver	7.5185855530e-03	1.4594656920e-08	4	2.3961675730e-03	4.4031179590e-09	4	1.0971769760e-02	2.2067754840e-08	4	false	DILUPBiCGStab	1.7224814360e-02	3.5935067870e-09	2	true	DILUPBiCGStab	6.0211226760e-04	6.3152460390e-09	2	true	DICPCG	2.7167024700e-02	2.4188206050e-04	51	true
0.019521336       	DILUPBiCGStab	1.5972853050e-03	1.9230043810e-05	1	true	smoothSolver	7.6018019600e-03	1.5262147640e-08	4	2.3448825510e-03	4.5449482120e-09	4	1.1061861240e-02	2.2705636690e-08	4	false	DILUPBiCGStab	1.7239488780e-02	3.9268781220e-09	2	true	DILUPBiCGStab	6.0952462520e-04	6.1114911540e-09	2	true	DICPCG	2.7837884740e-02	2.7470027120e-04	51	true
0.019803717       	DILUPBiCGStab	1.6206129170e-03	2.0386030250e-05	1	true	smoothSolver	7.6401125270e-03	1.5576449970e-08	4	2.2823008240e-03	4.5439939030e-09	4	1.1112457170e-02	2.2822884150e-08	4	false	DILUPBiCGStab	1.7211042090e-02	4.2451476460e-09	2	true	DILUPBiCGStab	6.1472922880e-04	5.9279835760e-09	2	true	DICPCG	2.8402657990e-02	2.5829650460e-04	52	true
0.020090132       	DILUPBiCGStab	1.6383951100e-03	2.1398283600e-05	1	true	smoothSolver	7.6332360430e-03	1.5544571250e-08	4	2.2127753850e-03	4.4108617960e-09	4	1.1128232360e-02	2.2460886220e-08	4	false	DILUPBiCGStab	1.7129663010e-02	4.5838464410e-09	2	true	DILUPBiCGStab	6.1760450420e-04	5.9219979470e-09	2	true	DICPCG	2.8839223320e-02	2.8069999590e-04	52	true
0.020380714       	DILUPBiCGStab	1.6557969000e-03	2.2439029350e-05	1	true	smoothSolver	7.6115142240e-03	1.5481896690e-08	4	2.1499993580e-03	4.2675416570e-09	4	1.1157110340e-02	2.1852508740e-08	4	false	DILUPBiCGStab	1.7037704050e-02	4.9939253470e-09	2	true	DILUPBiCGStab	6.2066178580e-04	6.0557360880e-09	2	true	DICPCG	2.9194489950e-02	2.5432433770e-04	53	true
0.020674512       	DILUPBiCGStab	1.6665601470e-03	2.3267185700e-05	1	true	smoothSolver	7.5648018490e-03	1.5190617430e-08	4	2.0959406230e-03	4.0984458100e-09	4	1.1174087760e-02	2.0876019270e-08	4	false	DILUPBiCGStab	1.6865655570e-02	5.4358639880e-09	2	true	DILUPBiCGStab	6.2147096590e-04	6.1456387410e-09	2	true	DICPCG	2.9410846060e-02	2.6735201320e-04	53	true
0.020971611       	DILUPBiCGStab	1.6761583030e-03	2.4078805090e-05	1	true	smoothSolver	7.5409279490e-03	1.5058912820e-08	4	2.0713950930e-03	4.0082353610e-09	4	1.1290333460e-02	2.0006342460e-08	4	false	DILUPBiCGStab	1.6682572050e-02	5.8396915210e-09	2	true	DILUPBiCGStab	6.2251337660e-04	6.3545791590e-09	2	true	DICPCG	2.9555319220e-02	2.8277143930e-04	53	true
0.021269831       	DILUPBiCGStab	1.6719405940e-03	2.4353105890e-05	1	true	smoothSolver	7.5146880110e-03	1.4736554640e-08	4	2.0820947280e-03	3.9343396560e-09	4	1.1392811390e-02	1.8316199290e-08	4	false	DILUPBiCGStab	1.6368864070e-02	6.0221244360e-09	2	true	DILUPBiCGStab	6.1902828240e-04	6.5032720410e-09	2	true	DICPCG	2.9507530320e-02	2.8525600250e-04	53	true
0.021570328       	DILUPBiCGStab	1.6720365100e-03	2.4811660980e-05	1	true	smoothSolver	7.5537552980e-03	1.4976524470e-08	4	2.1603016840e-03	4.0402822170e-09	4	1.1554618750e-02	1.6782557160e-08	4	false	DILUPBiCGStab	1.6067044960e-02	6.4303323640e-09	2	true	DILUPBiCGStab	6.1782011370e-04	6.6643561080e-09	2	true	DICPCG	2.9488097630e-02	2.9104685200e-04	53	true
0.021870825       	DILUPBiCGStab	1.6576109050e-03	2.4677454190e-05	1	true	smoothSolver	7.5642872130e-03	1.4844114830e-08	4	2.2933224280e-03	4.0562784630e-09	4	1.1634733640e-02	1.4649045130e-08	4	false	DILUPBiCGStab	1.5640723050e-02	6.6710583930e-09	2	true	DILUPBiCGStab	6.1218923730e-04	6.6466682380e-09	2	true	DICPCG	2.9314617860e-02	2.7983542100e-04	53	true
0.022172482       	DILUPBiCGStab	1.6471893840e-03	2.4706872130e-05	1	true	smoothSolver	7.6119774570e-03	1.5089492230e-08	4	2.4735801650e-03	4.1784133110e-09	4	1.1750906100e-02	1.2956988740e-08	4	false	DILUPBiCGStab	1.5272955560e-02	7.0199788910e-09	2	true	DILUPBiCGStab	6.0835363270e-04	6.9598055540e-09	2	true	DICPCG	2.9205512360e-02	2.7516515780e-04	53	true
0.022474139       	DILUPBiCGStab	1.6282006300e-03	2.4380736670e-05	1	true	smoothSolver	7.6308897440e-03	1.5099078700e-08	4	2.6451720690e-03	4.2245904460e-09	4	1.1823766500e-02	1.1575090790e-08	4	false	DILUPBiCGStab	1.4855769300e-02	7.2365465960e-09	2	true	DILUPBiCGStab	6.0252195770e-04	7.3259851550e-09	2	true	DICPCG	2.9056180140e-02	2.6386648060e-04	53	true
0.022775796       	DILUPBiCGStab	1.6068844510e-03	2.3952441070e-05	1	true	smoothSolver	7.6456058290e-03	1.5123618900e-08	4	2.8118572270e-03	4.2741296770e-09	4	1.1898786500e-02	1.0441813040e-08	4	false	DILUPBiCGStab	1.4456742530e-02	7.4445881290e-09	2	true	DILUPBiCGStab	5.9638886450e-04	7.8543864130e-09	2	true	DICPCG	2.8980450820e-02	2.5576331300e-04	53	true
0.023077453       	DILUPBiCGStab	1.5832469930e-03	2.3424774800e-05	1	true	smoothSolver	7.6533508680e-03	1.5126997740e-08	4	2.9728947840e-03	4.3293919790e-09	4	1.1985260560e-02	9.3288596580e-09	4	false	DILUPBiCGStab	1.4067680600e-02	7.5230000160e-09	2	true	DILUPBiCGStab	5.8995299100e-04	8.4615474560e-09	2	true	DICPCG	2.8956113760e-02	2.5297163420e-04	53	true
0.023380298       	DILUPBiCGStab	1.5633027270e-03	2.3045407770e-05	1	true	smoothSolver	7.6860430660e-03	1.5414028690e-08	4	3.1397713400e-03	4.4894640100e-09	4	1.2143489510e-02	8.5505809460e-09	4	false	DILUPBiCGStab	1.3744836290e-02	7.6206872820e-09	2	true	DILUPBiCGStab	5.8561643530e-04	9.1925806330e-09	2	true	DICPCG	2.9018820620e-02	2.6164076710e-04	53	true
0.023683142       	DILUPBiCGStab	1.5350165920e-03	2.2325637960e-05	1	true	smoothSolver	7.6926449550e-03	1.5423428260e-08	4	3.2915282180e-03	4.5988211340e-09	4	1.2278217400e-02	8.1424096430e-09	4	false	DILUPBiCGStab	1.3390837360e-02	7.6918929110e-09	2	true	DILUPBiCGStab	5.7875915990e-04	9.7476916470e-09	2	true	DICPCG	2.9085429290e-02	2.6470346260e-04	53	true
0.023987194       	DILUPBiCGStab	1.5105789720e-03	2.1755628020e-05	1	true	smoothSolver	7.7313789020e-03	1.5770339400e-08	4	3.4515910630e-03	4.8512631310e-09	4	1.2471493860e-02	8.0771156430e-09	4	false	DILUPBiCGStab	1.3093569500e-02	7.8314526330e-09	2	true	DILUPBiCGStab	5.7395850030e-04	1.0438670400e-08	2	true	DICPCG	2.9303456940e-02	2.7133080940e-04	53	true
0.024292466       	DILUPBiCGStab	1.4840984930e-03	2.1099660060e-05	1	true	smoothSolver	7.7890270160e-03	1.6203166010e-08	4	3.6123677340e-03	5.2130351150e-09	4	1.2683923890e-02	7.9798301230e-09	4	false	DILUPBiCGStab	1.2801198730e-02	7.7982476090e-09	2	true	DILUPBiCGStab	5.6897524310e-04	1.1218163450e-08	2	true	DICPCG	2.9512391340e-02	2.7372689800e-04	53	true