# Region type :   sampledSurface planeZ5p
# Faces           : 966
# Area            : 8.2959467477e-02
# Scale factor    : 1.0000000000e+00
# Time            	areaAverage(p_rgh)
0.0022270965      	6.9000000004e+06
0.0096097579      	6.9000023250e+06
0.013010141       	6.9000248430e+06
0.015529156       	6.9001397767e+06
0.018148069       	6.9005628951e+06
0.020857049       	6.9013997481e+06
0.02347722        	6.9032262313e+06
0.026041769       	6.9095412344e+06
0.028605501       	6.9239255306e+06
0.031064934       	6.9407413694e+06
0.033272514       	6.9490907218e+06
0.035314692       	6.9494131283e+06
0.037336227       	6.9481095387e+06
0.039372081       	6.9480094689e+06
0.041394097       	6.9478999832e+06
0.043402323       	6.9472501379e+06
0.045418211       	6.9457185651e+06
0.047440984       	6.9417360274e+06
0.049404863       	6.9341303513e+06
0.051270606       	6.9240200838e+06
0.053080282       	6.9141962938e+06
0.05487189        	6.9075544719e+06
0.056648489       	6.9051180013e+06
0.058411791       	6.9052382500e+06
0.060178796       	6.9056136057e+06
0.061961981       	6.9054320165e+06
0.063737396       	6.9051180495e+06
0.06546678        	6.9048677715e+06
0.067149859       	6.9044507959e+06
0.068799377       	6.9038381074e+06
0.070418288       	6.9032452838e+06
0.07201351        	6.9028046714e+06
0.073605298       	6.9024571351e+06
0.075207256       	6.9020833615e+06
0.076810873       	6.9016904213e+06
0.078401693       	6.9014445978e+06
0.079973704       	6.9014592020e+06
0.081525887       	6.9016522353e+06
0.08305684        	6.9018695075e+06
0.084573195       	6.9020316053e+06
0.086091001       	6.9021290612e+06
0.08761111        	6.9021880579e+06
0.08913122        	6.9022625299e+06
0.090640976       	6.9023729230e+06
0.092133166       	6.9024480863e+06
0.093607826       	6.9023857404e+06
0.095066271       	6.9021633563e+06
0.096517367       	6.9018301758e+06
0.097968464       	6.9013716500e+06
0.099419561       	6.9006250577e+06
0.10086877        	6.8993495379e+06
0.10230429        	6.8973420035e+06
0.10372716        	6.8944287986e+06
0.10514173        	6.8904593463e+06
0.1065501         	6.8854013305e+06
0.1079494         	6.8794886227e+06
0.1093265         	6.8732820436e+06
0.11066394        	6.8674972033e+06
0.11195448        	6.8627138434e+06
0.11319772        	6.8592492584e+06
0.11438549        	6.8571426862e+06
0.11550788        	6.8561555022e+06
0.11655434        	6.8559058303e+06
0.11751382        	6.8560342135e+06
0.11839213        	6.8563072291e+06
0.11920705        	6.8566226794e+06
0.11997595        	6.8569569681e+06
0.12071176        	6.8573230288e+06
0.12142366        	6.8577483326e+06
0.12211744        	6.8582632789e+06
0.12279585        	6.8588943267e+06
0.12345995        	6.8596606827e+06
0.12411069        	6.8605748201e+06
0.12474941        	6.8616450384e+06
0.12537756        	6.8628780198e+06
0.12599666        	6.8642812440e+06
0.12660865        	6.8658649309e+06
0.12721581        	6.8676418890e+06
0.12782027        	6.8696236212e+06
0.1284235         	6.8718142336e+06
0.1290265         	6.8742053669e+06
0.12962963        	6.8767714309e+06
0.1302331         	6.8794711325e+06
0.13083662        	6.8822506899e+06
0.13143976        	6.8850521066e+06
0.13204176        	6.8878142280e+06
0.13264225        	6.8904718973e+06
0.13324123        	6.8929553897e+06
0.13383893        	6.8951996989e+06
0.13443587        	6.8971564123e+06
0.13503282        	6.8987994007e+06
0.13563073        	6.9001253554e+06
0.13623037        	6.9011506304e+06
0.13683211        	6.9019080424e+06
0.13743596        	6.9024445378e+06
0.13804175        	6.9028179486e+06
0.13864917        	6.9030886988e+06
0.13925774        	6.9033094711e+06
0.13986691        	6.9035184565e+06
0.14047644        	6.9037381231e+06
0.14108623        	6.9039765222e+06
0.14169673        	6.9042294139e+06
0.14230845        	6.9044840531e+06
0.14292208        	6.9047258809e+06
0.1435384         	6.9049450888e+06
0.14415801        	6.9051393650e+06
0.14478124        	6.9053131994e+06
0.14540791        	6.9054760075e+06
0.14603771        	6.9056399151e+06
0.14667028        	6.9058163166e+06
0.14730514        	6.9060117385e+06
0.14794187        	6.9062247201e+06
0.14858019        	6.9064448458e+06
0.1492202         	6.9066543970e+06
0.14986238        	6.9068323303e+06
0.15050729        	6.9069597394e+06
0.15115545        	6.9070257526e+06
0.15180719        	6.9070315627e+06
0.15246262        	6.9069902546e+06
0.15312143        	6.9069230149e+06
0.15378298        	6.9068552204e+06
0.15444654        	6.9068139041e+06
0.15511149        	6.9068247419e+06
0.15577729        	6.9069070704e+06
0.15644368        	6.9070680959e+06
0.15711093        	6.9072982156e+06
0.15777953        	6.9075691694e+06
0.15845013        	6.9078376516e+06
0.1591232         	6.9080555499e+06
0.159799          	6.9081840080e+06
0.16047756        	6.9082046709e+06
0.16115846        	6.9081227207e+06
0.16184106        	6.9079623018e+06
0.16252471        	6.9077581636e+06
0.163209          	6.9075466733e+06
0.16389358        	6.9073576255e+06
0.16457878        	6.9072076333e+06
0.16526494        	6.9070976648e+06
0.16595274        	6.9070148410e+06
0.16664276        	6.9069380662e+06
0.16733523        	6.9068455244e+06
0.1680302         	6.9067217775e+06
0.1687274         	6.9065622903e+06
0.16942615        	6.9063740427e+06
0.17012595        	6.9061721002e+06
0.17082639        	6.9059737289e+06
0.17152727        	6.9057922108e+06
0.17222865        	6.9056325420e+06
0.17293106        	6.9054901997e+06
0.17363485        	6.9053529979e+06
0.17434051        	6.9052053923e+06
0.17504818        	6.9050351874e+06
0.1757576         	6.9048408784e+06
0.17646837        	6.9046368338e+06
0.17717989        	6.9044542184e+06
0.17789168        	6.9043378654e+06
0.17860256        	6.9043411073e+06
0.17931344        	6.9045202041e+06
0.18002369        	6.9049291817e+06
0.18073416        	6.9056156601e+06
0.18144508        	6.9066152301e+06
0.18215703        	6.9079477293e+06
0.18287012        	6.9096142068e+06
0.18358402        	6.9115976967e+06
0.18429932        	6.9138697944e+06
0.18501461        	6.9163827591e+06
0.1857299         	6.9190791479e+06
0.18644519        	6.9218876328e+06
0.18716049        	6.9247244448e+06
0.18787578        	6.9274979266e+06
0.18859107        	6.9301159250e+06
0.18930786        	6.9324991679e+06
0.19002546        	6.9345764508e+06
0.19074426        	6.9363028042e+06
0.19146455        	6.9376586961e+06
0.19218484        	6.9386492608e+06
0.19290514        	6.9393070852e+06
0.19362543        	6.9396814174e+06
0.19434572        	6.9398303490e+06
0.19506601        	6.9398125417e+06
0.1957863         	6.9396788671e+06
0.19650659        	6.9394661641e+06
0.19722688        	6.9391941868e+06
0.19794717        	6.9388657076e+06
0.19866746        	6.9384692177e+06
0.19938775        	6.9379832394e+06
0.20010846        	6.9373807000e+06
0.20083175        	6.9366306571e+06
0.20155508        	6.9357072280e+06
0.20227846        	6.9345841150e+06
0.20300213        	6.9332360299e+06
0.20372631        	6.9316389771e+06
0.20445132        	6.9297711940e+06
0.2051773         	6.9276175233e+06
0.20590438        	6.9251749057e+06
0.20663249        	6.9224593898e+06
0.20736141        	6.9195117847e+06
0.20809096        	6.9163987543e+06
0.20882092        	6.9132100746e+06
0.20955129        	6.9100497873e+06
0.21028204        	6.9070263378e+06
0.21101338        	6.9042393589e+06
0.21174546        	6.9017693541e+06
0.21247843        	6.8996688911e+06
0.21321233        	6.8979578295e+06
0.21394707        	6.8966235093e+06
0.21468243        	6.8956255695e+06
0.21541815        	6.8949047945e+06
0.21615395        	6.8943941160e+06
0.21688944        	6.8940290117e+06
0.21762465        	6.8937551672e+06
0.21835946        	6.8935330727e+06
0.2190939         	6.8933384608e+06
0.21982799        	6.8931599003e+06
0.22056166        	6.8929943282e+06
0.22129477        	6.8928422522e+06
0.22202712        	6.8927041070e+06
0.22275845        	6.8925785482e+06
0.22348854        	6.8924628202e+06
0.22421725        	6.8923543995e+06
0.22494458        	6.8922528529e+06
0.22567063        	6.8921610266e+06
0.22639563        	6.8920849346e+06
0.22711985        	6.8920322298e+06
0.22784352        	6.8920096558e+06
0.22856689        	6.8920202484e+06
0.22929026        	6.8920612469e+06
0.23001364        	6.8921234259e+06
0.23073703        	6.8921922512e+06
0.23146078        	6.8922506000e+06
0.23218487        	6.8922821729e+06
0.23290955        	6.8922750258e+06
0.23363493        	6.8922243507e+06
0.23436115        	6.8921341146e+06
0.23508837        	6.8920170301e+06
0.23581657        	6.8918926381e+06
0.23654581        	6.8917833991e+06
0.2372759         	6.8917096967e+06
0.23800674        	6.8916849149e+06
0.23873814        	6.8917122747e+06
0.23947004        	6.8917845000e+06
0.24020236        	6.8918865511e+06
0.24093502        	6.8920003502e+06
0.24166802        	6.8921097957e+06
0.24240136        	6.8922046131e+06
0.2431351         	6.8922821316e+06
0.24386913        	6.8923465884e+06
0.24460335        	6.8924065677e+06
0.24533756        	6.8924715663e+06
0.24607178        	6.8925488563e+06
0.2468055         	6.8926414025e+06
0.24753919        	6.8927477529e+06
0.24827239        	6.8928631353e+06
0.2490056         	6.8929819249e+06
0.2497387         	6.8930994418e+06
0.25047137        	6.8932130120e+06
0.25120458        	6.8933216839e+06
0.2519378         	6.8934238139e+06
0.25267101        	6.8935145139e+06
0.25340479        	6.8935827500e+06
0.25413887        	6.8936091647e+06
0.25487347        	6.8935657087e+06
0.25560876        	6.8934167981e+06
0.25634497        	6.8931221011e+06
0.25708214        	6.8926406050e+06
0.25782048        	6.8919349745e+06
0.25855999        	6.8909762406e+06
0.25930062        	6.8897476068e+06
0.26004234        	6.8882470764e+06
0.26078508        	6.8864885553e+06
0.26152874        	6.8845013800e+06
0.26227319        	6.8823281432e+06
0.26301842        	6.8800215141e+06
0.26376443        	6.8776412725e+06
0.26451125        	6.8752515328e+06
0.26525894        	6.8729179295e+06
0.26600751        	6.8707050339e+06
0.26675707        	6.8686726010e+06
0.26750765        	6.8668721360e+06
0.26825923        	6.8653426547e+06
0.26901178        	6.8641069712e+06
0.26976539        	6.8631694370e+06
0.27052013        	6.8625164741e+06
0.27127627        	6.8621196126e+06
0.27203366        	6.8619412183e+06
0.27279233        	6.8619407763e+06
0.2735526         	6.8620822759e+06
0.27431423        	6.8623398963e+06
0.27507716        	6.8627012052e+06
0.27584138        	6.8631675507e+06
0.27660675        	6.8637519054e+06
0.27737319        	6.8644755269e+06
0.27814053        	6.8653639645e+06
0.27890888        	6.8664438899e+06
0.27967829        	6.8677400865e+06
0.28044835        	6.8692722772e+06
0.28121962        	6.8710558151e+06
0.28199154        	6.8730950112e+06
0.28276443        	6.8753846734e+06
0.28353769        	6.8779024149e+06
0.28431239        	6.8806148469e+06
0.28508708        	6.8834627443e+06
0.2858623         	6.8863782858e+06
0.2866391         	6.8892847121e+06
0.2874159         	6.8920908472e+06
0.28819307        	6.8947166859e+06
0.28897241        	6.8970979817e+06
0.28975174        	6.8991770849e+06
0.29053171        	6.9009293068e+06
0.29131422        	6.9023562358e+06
0.29209672        	6.9034740060e+06
0.29288048        	6.9043234258e+06
0.29366717        	6.9049539653e+06
0.29445385        	6.9054137471e+06
0.29524328        	6.9057506197e+06
0.29603607        	6.9060017709e+06
0.29682886        	6.9061934319e+06
0.29762164        	6.9063439730e+06
0.29841443        	6.9064648051e+06
0.29920721        	6.9065631210e+06
0.3               	6.9066437867e+06
0.30080897        	6.9067115268e+06
0.30162107        	6.9067661852e+06
0.30243619        	6.9068070090e+06
0.3032542         	6.9068314346e+06
0.30407491        	6.9068358601e+06
0.30489795        	6.9068177029e+06
0.30572295        	6.9067774630e+06
0.30654953        	6.9067198215e+06
0.30737729        	6.9066536230e+06
0.30820591        	6.9065905207e+06
0.30903503        	6.9065422414e+06
0.30986451        	6.9065175287e+06
0.31069411        	6.9065195255e+06
0.3115237         	6.9065445792e+06
0.3123533         	6.9065831534e+06
0.31318299        	6.9066223597e+06
0.31401298        	6.9066497347e+06
0.31484297        	6.9066568801e+06
0.31567325        	6.9066415584e+06
0.31650383        	6.9066080639e+06
0.31733485        	6.9065655498e+06
0.31816636        	6.9065245612e+06
0.3189986         	6.9064935680e+06
0.31983158        	6.9064768944e+06
0.32066544        	6.9064742245e+06
0.32150023        	6.9064813594e+06
0.32233611        	6.9064920365e+06
0.32317306        	6.9065002808e+06
0.32401123        	6.9065021868e+06
0.32485052        	6.9064965179e+06
0.32569102        	6.9064846093e+06
0.3265326         	6.9064704137e+06
0.32737512        	6.9064595861e+06
0.32821837        	6.9064605469e+06
0.32906212        	6.9064869695e+06
0.32990611        	6.9065592855e+06
0.33075011        	6.9067059411e+06
0.33159375        	6.9069637320e+06
0.33243694        	6.9073758018e+06
0.33327953        	6.9079875129e+06
0.33412132        	6.9088408999e+06
0.33496236        	6.9099689611e+06
0.33580253        	6.9113895561e+06
0.33664195        	6.9131015100e+06
0.33748063        	6.9150815686e+06
0.33831855        	6.9172844575e+06
0.33915585        	6.9196458779e+06
0.33999251        	6.9220869283e+06
0.34082855        	6.9245212230e+06
0.34166398        	6.9268617235e+06
0.34249872        	6.9290281718e+06
0.34333271        	6.9309549927e+06
0.3441658         	6.9325967182e+06
0.34499803        	6.9339301818e+06
0.34582919        	6.9349527738e+06
0.34665923        	6.9356801052e+06
0.34748811        	6.9361408045e+06
0.34831578        	6.9363702426e+06
0.3491422         	6.9364041822e+06
0.34996737        	6.9362731494e+06
0.35079132        	6.9359980730e+06
0.35161414        	6.9355879358e+06
0.35243594        	6.9350394279e+06
0.35325686        	6.9343384063e+06
0.35407688        	6.9334629818e+06
0.3548962         	6.9323870101e+06
0.35571482        	6.9310846673e+06
0.35653291        	6.9295340910e+06
0.35735072        	6.9277213815e+06
0.3581678         	6.9256463594e+06
0.35898483        	6.9233209742e+06
0.3598015         	6.9207768774e+06
0.36061771        	6.9180628353e+06
0.36143393        	6.9152418398e+06
0.36225014        	6.9123907137e+06
0.363066          	6.9095941239e+06
0.36388132        	6.9069350834e+06
0.36469664        	6.9044852908e+06
0.36551172        	6.9023025765e+06
0.36632608        	6.9004233615e+06
0.36714009        	6.8988584760e+06
0.36795346        	6.8975984240e+06
0.36876584        	6.8966158713e+06
0.36957727        	6.8958712296e+06
0.37038752        	6.8953199449e+06
0.37119632        	6.8949179318e+06
0.37200364        	6.8946260272e+06
0.37280923        	6.8944126838e+06
0.37361297        	6.8942544480e+06
0.37441463        	6.8941353374e+06
0.37521429        	6.8940452744e+06
0.37601182        	6.8939785492e+06
0.37680711        	6.8939323710e+06
0.37760049        	6.8939057877e+06
0.37839177        	6.8938989365e+06
0.37918125        	6.8939122948e+06
0.37996915        	6.8939460211e+06
0.38075582        	6.8939993058e+06
0.3815413         	6.8940697768e+06
0.38232584        	6.8941531741e+06
0.38310962        	6.8942434186e+06
0.38389339        	6.8943332640e+06
0.38467717        	6.8944150266e+06
0.38546095        	6.8944818771e+06
0.38624472        	6.8945289612e+06
0.3870285         	6.8945542385e+06
0.38781228        	6.8945587640e+06
0.38859605        	6.8945462371e+06
0.38937983        	6.8945219688e+06
0.3901636         	6.8944916073e+06
0.39094738        	6.8944599247e+06
0.39173116        	6.8944299532e+06
0.39251493        	6.8944026726e+06
0.39329871        	6.8943773543e+06
0.39408249        	6.8943523856e+06
0.39486626        	6.8943261590e+06
0.39565004        	6.8942978223e+06
0.39643382        	6.8942677951e+06
0.39721759        	6.8942378354e+06
0.39800137        	6.8942105170e+06
0.39878515        	6.8941884096e+06
0.39956892        	6.8941733763e+06
0.40035197        	6.8941659679e+06
0.40113376        	6.8941649296e+06
0.40191512        	6.8941669677e+06
0.40269607        	6.8941664265e+06
0.40347667        	6.8941550922e+06
0.40425697        	6.8941218446e+06
0.40503719        	6.8940521886e+06
0.40581718        	6.8939282307e+06
0.40659745        	6.8937286564e+06
0.40737785        	6.8934295805e+06
0.40815863        	6.8930055879e+06
0.40893982        	6.8924318917e+06
0.40972158        	6.8916864410e+06
0.41050394        	6.8907526704e+06
0.41128695        	6.8896216963e+06
0.41207062        	6.8882943037e+06
0.41285495        	6.8867818750e+06
0.41363992        	6.8851066289e+06
0.41442553        	6.8833007349e+06
0.41521174        	6.8814047824e+06
0.41599853        	6.8794653574e+06
0.41678596        	6.8775323125e+06
0.41757405        	6.8756561519e+06
0.4183628         	6.8738849575e+06
0.41915225        	6.8722614827e+06
0.41994249        	6.8708206589e+06
0.42073356        	6.8695879785e+06
0.42152551        	6.8685784501e+06
0.42231845        	6.8677967257e+06
0.42311237        	6.8672381636e+06
0.42390735        	6.8668908792e+06
0.42470334        	6.8667390829e+06
0.4255004         	6.8667665124e+06
0.42629847        	6.8669594060e+06
0.42709752        	6.8673086780e+06
0.4278975         	6.8678112656e+06
0.42869835        	6.8684702738e+06
0.42949995        	6.8692939120e+06
0.43030222        	6.8702935842e+06
0.43110508        	6.8714812168e+06
0.43190847        	6.8728665829e+06
0.43271234        	6.8744543240e+06
0.43351662        	6.8762414693e+06
0.43432114        	6.8782153627e+06
0.43512602        	6.8803536247e+06
0.43593106        	6.8826224554e+06
0.43673645        	6.8849795541e+06
0.43754185        	6.8873733308e+06
0.43834773        	6.8897499767e+06
0.43915364        	6.8920519429e+06
0.43996006        	6.8942277910e+06
0.44076676        	6.8962316602e+06
0.44157392        	6.8980299895e+06
0.44238166        	6.8996024187e+06
0.44319009        	6.9009427356e+06
0.4439994         	6.9020582397e+06
0.44480975        	6.9029671032e+06
0.44562128        	6.9036952616e+06
0.44643418        	6.9042726135e+06
0.44724869        	6.9047295384e+06
0.44806487        	6.9050938923e+06
0.44888298        	6.9053893010e+06
0.44970309        	6.9056340248e+06
0.45052531        	6.9058409686e+06
0.45134969        	6.9060181270e+06
0.45217624        	6.9061694914e+06
0.45300493        	6.9062961470e+06
0.4538355         	6.9063973694e+06
0.45466793        	6.9064718910e+06
0.4555019         	6.9065187857e+06
0.4563372         	6.9065383169e+06
0.45717353        	6.9065323306e+06
0.45801072        	6.9065043942e+06
0.45884817        	6.9064595581e+06
0.45968629        	6.9064037393e+06
0.46052441        	6.9063429823e+06
0.46136244        	6.9062824632e+06
0.46219966        	6.9062258700e+06
0.46303688        	6.9061748754e+06
0.46387409        	6.9061293051e+06
0.46471034        	6.9060875616e+06
0.46554659        	6.9060472303e+06
0.46638284        	6.9060060473e+06
0.46721908        	6.9059624839e+06
0.46805533        	6.9059159979e+06
0.46889158        	6.9058667918e+06
0.46972783        	6.9058153596e+06
0.47056408        	6.9057621521e+06
0.47140032        	6.9057074020e+06
0.4722378         	6.9056508975e+06
0.47307527        	6.9055921932e+06
0.47391301        	6.9055306749e+06
0.47475182        	6.9054662974e+06
0.47559063        	6.9054005343e+06
0.47643017        	6.9053367595e+06
0.47727045        	6.9052810864e+06
0.47811073        	6.9052428674e+06
0.47895101        	6.9052349523e+06
0.47979129        	6.9052740789e+06
0.48063157        	6.9053807865e+06
0.48147185        	6.9055787953e+06
0.48231213        	6.9058941125e+06
0.48315241        	6.9063534764e+06
0.4839914         	6.9069809872e+06
0.48482955        	6.9077973008e+06
0.4856677         	6.9088170189e+06
0.48650495        	6.9100432960e+06
0.48734056        	6.9114672884e+06
0.48817617        	6.9130720283e+06
0.48901177        	6.9148260843e+06
0.48984542        	6.9166830741e+06
0.49067776        	6.9185947157e+06
0.49151011        	6.9205103999e+06
0.49234245        	6.9223755141e+06
0.49317479        	6.9241381112e+06
0.49400685        	6.9257525241e+06
0.49483349        	6.9271754963e+06
0.49566013        	6.9283941664e+06
0.49648677        	6.9293953518e+06
0.49731342        	6.9301755784e+06
0.49814006        	6.9307391313e+06
0.4989667         	6.9310954340e+06
0.49979334        	6.9312561624e+06
0.50061608        	6.9312329173e+06
0.50143664        	6.9310356642e+06
0.50225626        	6.9306688396e+06
0.50307495        	6.9301320766e+06
0.50389286        	6.9294208373e+06
0.50471008        	6.9285280997e+06
0.50552671        	6.9274462836e+06
0.50634277        	6.9261696098e+06
0.5071584         	6.9246965401e+06
0.50797368        	6.9230324326e+06
0.50878866        	6.9211911142e+06
0.50960341        	6.9191959052e+06
0.51041787        	6.9170797165e+06
0.51123225        	6.9148827049e+06
0.51204636        	6.9126521600e+06
0.51286036        	6.9104375412e+06
0.51367409        	6.9082889969e+06
0.51448762        	6.9062517076e+06
0.5153008         	6.9043638775e+06
0.51611356        	6.9026531701e+06
0.51692582        	6.9011353277e+06
0.51773743        	6.8998144528e+06
0.51854829        	6.8986841382e+06
0.51935827        	6.8977298579e+06
0.52016715        	6.8969315034e+06
0.52097483        	6.8962660341e+06
0.52178119        	6.8957102901e+06
0.52258607        	6.8952431204e+06
0.52338937        	6.8948468422e+06
0.52419102        	6.8945079155e+06
0.52499099        	6.8942169400e+06
0.52578925        	6.8939680924e+06
0.5265858         	6.8937583210e+06
0.52738075        	6.8935863585e+06
0.52817419        	6.8934517870e+06
0.52896622        	6.8933541633e+06
0.52975704        	6.8932924281e+06
0.5305468         	6.8932645615e+06
0.53133573        	6.8932674336e+06
0.5321239         	6.8932968558e+06
0.5329116         	6.8933477977e+06
0.53369903        	6.8934147171e+06
0.53448619        	6.8934919463e+06
0.53527314        	6.8935741567e+06
0.53606014        	6.8936568461e+06
0.53684758        	6.8937367666e+06
0.53763502        	6.8938120859e+06
0.53842245        	6.8938824849e+06
0.53921032        	6.8939488414e+06
0.53999826        	6.8940127134e+06
0.5407862         	6.8940760387e+06
0.54157414        	6.8941408042e+06
0.54236208        	6.8942087881e+06
0.54315003        	6.8942813893e+06
0.54393797        	6.8943596221e+06
0.54472591        	6.8944442482e+06
0.54551332        	6.8945358033e+06
0.5463007         	6.8946347598e+06
0.54708773        	6.8947412426e+06
0.54787453        	6.8948550351e+06
0.54866094        	6.8949752659e+06
0.54944714        	6.8951001480e+06
0.55023286        	6.8952264503e+06
0.55101845        	6.8953492956e+06
0.55180362        	6.8954616766e+06
0.55258858        	6.8955544661e+06
0.55337354        	6.8956162089e+06
0.5541585         	6.8956331394e+06
0.55494345        	6.8955895474e+06
0.55572841        	6.8954683400e+06
0.55651337        	6.8952517991e+06
0.55729833        	6.8949225566e+06
0.55808383        	6.8944643798e+06
0.55886951        	6.8938641977e+06
0.55965583        	6.8931123970e+06
0.56044246        	6.8922052250e+06
0.56122968        	6.8911444003e+06
0.5620175         	6.8899384966e+06
0.56280572        	6.8886032850e+06
0.56359457        	6.8871603455e+06
0.56438402        	6.8856371802e+06
0.56517387        	6.8840660033e+06
0.56596447        	6.8824807512e+06
0.56675568        	6.8809176610e+06
0.56754736        	6.8794123483e+06
0.56833985        	6.8779972634e+06
0.5691331         	6.8767019332e+06
0.569927          	6.8755507844e+06
0.57072164        	6.8745621556e+06
0.57151725        	6.8737483171e+06
0.57231375        	6.8731164558e+06
0.57311112        	6.8726689499e+06
0.57390925        	6.8724045182e+06
0.57470836        	6.8723195814e+06
0.57550848        	6.8724100378e+06
0.57630912        	6.8726722372e+06
0.57711085        	6.8731041347e+06
0.577913          	6.8737044888e+06
0.57871616        	6.8744737602e+06
0.57951933        	6.8754109457e+06
0.58032361        	6.8765162459e+06
0.58112837        	6.8777853603e+06
0.58193313        	6.8792100312e+06
0.58273789        	6.8807778499e+06
0.58354265        	6.8824709910e+06
0.58434782        	6.8842670494e+06
0.58515463        	6.8861406649e+06
0.58596145        	6.8880557265e+06
0.58676826        	6.8899772448e+06
0.58757507        	6.8918697019e+06
0.58838189        	6.8936991804e+06
0.5891887         	6.8954354539e+06
0.58999551        	6.8970537984e+06
0.59080268        	6.8985369545e+06
0.59161302        	6.8998787189e+06
0.59242335        	6.9010699387e+06
0.59323369        	6.9021142828e+06
0.59404403        	6.9030208709e+06
0.59485561        	6.9038036630e+06
0.59567218        	6.9044798013e+06
0.59648875        	6.9050594270e+06
0.59730532        	6.9055566919e+06
0.59812189        	6.9059836132e+06
0.59893846        	6.9063495425e+06
0.59975503        	6.9066612122e+06
0.60057739        	6.9069247691e+06
0.60140368        	6.9071416396e+06
0.60223163        	6.9073126778e+06
0.60306111        	6.9074391849e+06
0.60389194        	6.9075228105e+06
0.60472392        	6.9075659975e+06
0.60555686        	6.9075722702e+06
0.60639057        	6.9075462573e+06
0.60722481        	6.9074935023e+06
0.60805949        	6.9074200954e+06
0.60889446        	6.9073321360e+06
0.60972953        	6.9072352029e+06
0.61056459        	6.9071338929e+06
0.61139966        	6.9070316241e+06
0.61223472        	6.9069305143e+06
0.61306945        	6.9068312719e+06
0.61390411        	6.9067333494e+06
0.61473878        	6.9066355150e+06
0.61557345        	6.9065360330e+06
0.61640811        	6.9064329082e+06
0.61724305        	6.9063241453e+06
0.61807814        	6.9062079300e+06
0.6189134         	6.9060826668e+06
0.61974891        	6.9059471237e+06
0.62058479        	6.9058005453e+06
0.62142096        	6.9056429353e+06
0.62225747        	6.9054753289e+06
0.62309431        	6.9053002779e+06
0.62393161        	6.9051222116e+06
0.62476923        	6.9049477346e+06
0.62560699        	6.9047858192e+06
0.62644512        	6.9046478968e+06
0.62728336        	6.9045480883e+06
0.62812159        	6.9045029094e+06
0.62895982        	6.9045307655e+06
0.62979795        	6.9046510905e+06
0.63063569        	6.9048831958e+06
0.63147311        	6.9052452497e+06
0.63231016        	6.9057527517e+06
0.63314674        	6.9064171032e+06
0.63398277        	6.9072441373e+06
0.63481824        	6.9082328570e+06
0.63565313        	6.9093746643e+06
0.63648739        	6.9106533955e+06
0.637321          	6.9120456403e+06
0.63815389        	6.9135215372e+06
0.63898607        	6.9150464129e+06
0.63981758        	6.9165824818e+06
0.64064834        	6.9180909101e+06
0.64147823        	6.9195343556e+06
0.64230735        	6.9208795473e+06
0.64313552        	6.9220977207e+06
0.64396285        	6.9231664638e+06
0.64478911        	6.9240691699e+06
0.64561445        	6.9247955323e+06
0.64643875        	6.9253400229e+06
0.647262          	6.9257012593e+06
0.64808433        	6.9258805983e+06
0.64890555        	6.9258806541e+06
0.64972592        	6.9257041976e+06
0.65054531        	6.9253533911e+06
0.65136386        	6.9248296050e+06
0.65218165        	6.9241338226e+06
0.65299874        	6.9232674642e+06
0.65381526        	6.9222332319e+06
0.65463125        	6.9210365117e+06
0.6554466         	6.9196865468e+06
0.65626178        	6.9181960880e+06
0.65707627        	6.9165844679e+06
0.65789076        	6.9148736387e+06
0.6587047         	6.9130924238e+06
0.6595184         	6.9112711604e+06
0.6603321         	6.9094420673e+06
0.66114505        	6.9076394665e+06
0.66195792        	6.9058924782e+06
0.6627703         	6.9042287708e+06
0.66358229        	6.9026697854e+06
0.6643936         	6.9012316880e+06
0.66520439        	6.8999235446e+06
0.66601444        	6.8987491831e+06
0.66682357        	6.8977069352e+06
0.66763172        	6.8967906399e+06
0.66843875        	6.8959911044e+06
0.6692446         	6.8952973468e+06
0.67004923        	6.8946978527e+06
0.67085257        	6.8941817394e+06
0.67165448        	6.8937394267e+06
0.67245485        	6.8933629086e+06
0.67325389        	6.8930457533e+06
0.67405156        	6.8927831585e+06
0.67484788        	6.8925714505e+06
0.67564289        	6.8924076573e+06
0.67643666        	6.8922890808e+06
0.67722942        	6.8922129517e+06
0.67802144        	6.8921761964e+06
0.67881232        	6.8921752581e+06
0.6796029         	6.8922059779e+06
0.68039317        	6.8922636668e+06
0.68118218        	6.8923431152e+06
0.68197119        	6.8924392000e+06
0.68276019        	6.8925469098e+06
0.6835492         	6.8926617425e+06
0.68433821        	6.8927799670e+06
0.68512721        	6.8928987771e+06
0.68591622        	6.8930163321e+06
0.68670523        	6.8931317376e+06
0.68749424        	6.8932449648e+06
0.68828324        	6.8933567334e+06
0.68907225        	6.8934683875e+06
0.68986126        	6.8935817185e+06
0.69065026        	6.8936987043e+06
0.69143927        	6.8938212476e+06
0.69222828        	6.8939509805e+06
0.69301729        	6.8940891211e+06
0.69380629        	6.8942363246e+06
0.6945953         	6.8943925446e+06
0.69538431        	6.8945568517e+06
0.69617332        	6.8947272111e+06
0.69696232        	6.8949002543e+06
0.69775133        	6.8950711488e+06
0.69854034        	6.8952335781e+06
0.69932934        	6.8953797052e+06
0.7001183         	6.8955002013e+06
0.70090694        	6.8955843369e+06
0.70169558        	6.8956202552e+06
0.70248423        	6.8955951398e+06
0.70327293        	6.8954957632e+06
0.7040619         	6.8953090505e+06
0.70485111        	6.8950229057e+06
0.70564063        	6.8946269824e+06
0.70643053        	6.8941135235e+06
0.70722089        	6.8934781282e+06
0.70801168        	6.8927205326e+06
0.70880296        	6.8918447625e+06
0.70959478        	6.8908593864e+06
0.71038715        	6.8897774265e+06
0.71118006        	6.8886160531e+06