# Solver information
# Time            	H2_solver         	H2_initial        	H2_final          	H2_iters          	H2_converged      	U_solver          	Ux_initial        	Ux_final          	Ux_iters          	Uy_initial        	Uy_final          	Uy_iters          	Uz_initial        	Uz_final          	Uz_iters          	U_converged       	k_solver          	k_initial         	k_final           	k_iters           	k_converged       	omega_solver      	omega_initial     	omega_final       	omega_iters       	omega_converged   	p_rgh_solver      	p_rgh_initial     	p_rgh_final       	p_rgh_iters       	p_rgh_converged   
1.200048e-05      	DILUPBiCGStab	1.0000000000e+00	5.4375913210e-05	1	true	smoothSolver	6.4196264130e-04	6.7552734120e-13	2	4.2782915580e-03	3.8816284290e-11	2	2.2312932190e-03	2.9351565370e-14	2	false	DILUPBiCGStab	1.0000000000e+00	5.1430029110e-09	1	true	DILUPBiCGStab	2.4101404170e-04	4.6439034000e-09	1	true	DICPCG	5.0680046780e-01	5.1853984080e-04	2	true
2.6401747e-05     	DILUPBiCGStab	1.2802879820e-01	9.6941799560e-06	1	true	smoothSolver	1.2483291990e-02	1.4878370970e-12	2	1.2122284330e-02	6.3792123860e-11	2	1.1704740460e-02	3.0578911000e-13	2	false	DILUPBiCGStab	2.6295101690e-01	1.0360420100e-09	1	true	DILUPBiCGStab	1.2417281640e-04	2.8108480210e-09	1	true	DICPCG	3.8345766050e-01	9.5808008110e-04	2	true
4.3683268e-05     	DILUPBiCGStab	7.4356196360e-02	8.0026097000e-06	1	true	smoothSolver	2.7449963960e-02	5.1117302000e-12	2	2.1837717620e-02	1.0727243340e-10	2	2.4071954280e-02	9.4020220030e-13	2	false	DILUPBiCGStab	1.4827459230e-01	8.4375395880e-10	1	true	DILUPBiCGStab	1.4471752530e-04	3.8935531710e-09	1	true	DICPCG	2.8653384280e-01	1.5992704000e-03	2	true
6.4421093e-05     	DILUPBiCGStab	5.5370408270e-02	8.3645401370e-06	1	true	smoothSolver	4.6002395010e-02	1.4241604920e-11	2	3.2585015870e-02	1.7335235370e-10	2	3.8011455640e-02	2.1681684090e-12	2	false	DILUPBiCGStab	1.0912934170e-01	9.0017072070e-10	1	true	DILUPBiCGStab	1.6830831630e-04	5.3676367940e-09	1	true	DICPCG	2.3276594090e-01	2.9154909660e-04	3	true
8.9305451e-05     	DILUPBiCGStab	4.5950297650e-02	1.1093486870e-05	1	true	smoothSolver	6.5759968490e-02	3.6474323090e-11	2	4.2187389290e-02	2.6766373630e-10	2	5.1355112570e-02	4.6454891310e-12	2	false	DILUPBiCGStab	8.9713482330e-02	1.0717508550e-09	1	true	DILUPBiCGStab	1.9503861410e-04	7.4385441700e-09	1	true	DICPCG	2.0940105580e-01	6.8075342310e-04	3	true
0.00011916519     	DILUPBiCGStab	4.0563719290e-02	1.9538041550e-05	1	true	smoothSolver	8.1188537690e-02	9.6439273020e-11	2	4.8325807970e-02	4.0689547770e-10	2	6.2100233570e-02	1.2788807260e-11	2	false	DILUPBiCGStab	7.8501587440e-02	1.4032585540e-09	1	true	DILUPBiCGStab	2.2526365150e-04	1.0511757810e-08	1	true	DICPCG	2.0182561700e-01	1.6016139940e-03	3	true
0.00015499046     	DILUPBiCGStab	3.7207599580e-02	4.0235990540e-05	1	true	smoothSolver	8.7831261290e-02	7.8850435780e-10	2	5.0316890120e-02	1.1524340340e-09	2	6.9240903770e-02	9.3934744970e-11	2	false	DILUPBiCGStab	7.1454308620e-02	2.2177595730e-09	1	true	DILUPBiCGStab	2.5908498270e-04	1.5114048730e-08	1	true	DICPCG	1.9838740800e-01	8.8919474700e-04	4	true
0.00019797152     	DILUPBiCGStab	3.4881845990e-02	7.4810481620e-05	1	true	smoothSolver	8.5874848180e-02	1.2178505060e-09	2	4.9119345680e-02	2.0216895760e-09	2	7.2879869280e-02	1.2915396050e-10	2	false	DILUPBiCGStab	6.6824039830e-02	4.2144693330e-09	1	true	DILUPBiCGStab	2.9687686300e-04	2.1709963460e-08	1	true	DICPCG	1.9339045280e-01	7.6905127890e-04	5	true
0.00024954879     	DILUPBiCGStab	3.3125073980e-02	1.2922049270e-04	1	true	smoothSolver	8.0033386420e-02	2.1301369000e-09	2	4.6363466380e-02	3.3806296260e-09	2	7.3929168150e-02	1.9631804860e-10	2	false	DILUPBiCGStab	6.3813100220e-02	8.9240655560e-09	1	true	DILUPBiCGStab	3.3899827390e-04	3.1771281930e-08	1	true	DICPCG	1.9213949550e-01	5.7314173350e-04	6	true
0.00031142873     	DILUPBiCGStab	3.1624604530e-02	2.0982134910e-04	1	true	smoothSolver	7.9292613280e-02	1.0376433730e-08	2	4.3767249240e-02	9.0980493690e-09	2	7.3225893770e-02	8.7346208310e-10	2	false	DILUPBiCGStab	6.1740878710e-02	1.9488613840e-08	1	true	DILUPBiCGStab	3.8601942380e-04	4.6670973460e-08	1	true	DICPCG	1.9949204660e-01	1.9481862530e-03	6	true
0.000385657       	DILUPBiCGStab	3.0222008000e-02	3.1912248320e-04	1	true	smoothSolver	8.9643241390e-02	4.5487153900e-08	2	4.2562698640e-02	2.2592087540e-08	2	7.1052472420e-02	3.0219937060e-09	2	false	DILUPBiCGStab	6.0180442800e-02	4.2637520300e-08	1	true	DILUPBiCGStab	4.3795950670e-04	6.7741789250e-08	1	true	DICPCG	2.1128678140e-01	1.1607354230e-03	8	true
0.00047475749     	DILUPBiCGStab	2.8880458750e-02	4.6612924930e-04	1	true	smoothSolver	1.0567030510e-01	2.6508661790e-13	4	4.1512803040e-02	4.7334271900e-08	2	6.8194863180e-02	7.5241401710e-09	2	false	DILUPBiCGStab	5.9255004420e-02	9.2217900170e-08	1	true	DILUPBiCGStab	4.9549047380e-04	9.9135124850e-08	1	true	DICPCG	2.2392234080e-01	1.8778864850e-03	9	true
0.00058165893     	DILUPBiCGStab	2.7468304580e-02	6.4766227240e-04	1	true	smoothSolver	1.1785190720e-01	1.9503714890e-12	4	3.9775781500e-02	8.1766116090e-08	2	6.5196176610e-02	1.4067285110e-08	2	false	DILUPBiCGStab	5.8574464700e-02	1.5037118660e-09	2	true	DILUPBiCGStab	5.5800907130e-04	3.1953710250e-10	1	true	DICPCG	2.2881614690e-01	1.6842366830e-03	11	true
0.00070766443     	DILUPBiCGStab	2.5514655960e-02	8.1657661920e-04	1	true	smoothSolver	1.2025936640e-01	1.7764569210e-11	4	3.7968113480e-02	2.8991231580e-12	4	6.1291729810e-02	1.8971467340e-08	2	false	DILUPBiCGStab	5.7105643590e-02	5.6873502990e-09	2	true	DILUPBiCGStab	6.1583183260e-04	7.6206510200e-10	1	true	DICPCG	2.2364000830e-01	2.0587504850e-03	13	true
0.00085261674     	DILUPBiCGStab	2.3094104560e-02	9.2057032260e-04	1	true	smoothSolver	1.1234560790e-01	1.1007082040e-10	4	3.6463762160e-02	2.7933578020e-11	4	5.6564549310e-02	2.4246168810e-08	2	false	DILUPBiCGStab	5.4825455970e-02	1.8512754650e-08	2	true	DILUPBiCGStab	6.6006541050e-04	1.8045833790e-09	1	true	DICPCG	2.1136230400e-01	1.8428795570e-03	15	true
0.0010162263      	DILUPBiCGStab	2.0596126090e-02	9.4617455800e-04	1	true	smoothSolver	9.8537946380e-02	5.3809111890e-10	4	3.3727104300e-02	1.1965406790e-10	4	5.2134772100e-02	4.6676713530e-08	2	false	DILUPBiCGStab	5.2225622440e-02	8.4473324040e-08	2	true	DILUPBiCGStab	6.9342707960e-04	3.9163203120e-09	1	true	DICPCG	1.9401882880e-01	1.8696382790e-03	17	true
0.0011981818      	DILUPBiCGStab	1.8252432670e-02	9.1356552900e-04	1	true	smoothSolver	8.5498346530e-02	1.8068911040e-09	4	3.1371491740e-02	4.1144265740e-10	4	4.9416129300e-02	7.2915915210e-08	2	false	DILUPBiCGStab	4.9636249290e-02	6.6680820750e-08	2	true	DILUPBiCGStab	7.1862647010e-04	7.8186092330e-09	1	true	DICPCG	1.7646610630e-01	1.6878157350e-03	19	true
0.0013778214      	DILUPBiCGStab	1.4545697230e-02	6.3151213550e-04	1	true	smoothSolver	7.4475679080e-02	1.7386702800e-09	4	2.6462821340e-02	4.3712489900e-10	4	4.4074616050e-02	5.4148779770e-08	2	false	DILUPBiCGStab	4.2567428630e-02	4.0036996860e-09	2	true	DILUPBiCGStab	6.6520792320e-04	8.5629668930e-09	1	true	DICPCG	1.4532417870e-01	1.4230346220e-03	19	true
0.0015577889      	DILUPBiCGStab	1.2146405580e-02	4.6658615790e-04	1	true	smoothSolver	7.4774367850e-02	1.4902248460e-09	4	2.3652455980e-02	4.7693588060e-10	4	4.0228516120e-02	4.0734345840e-08	2	false	DILUPBiCGStab	3.8088208710e-02	7.6252175890e-08	2	true	DILUPBiCGStab	6.3211690690e-04	1.0797385120e-08	1	true	DICPCG	1.2822910220e-01	1.0839423510e-03	20	true
0.0017411077      	DILUPBiCGStab	1.0547817850e-02	3.7196589900e-04	1	true	smoothSolver	8.0482197500e-02	1.5673410890e-09	4	2.1951790660e-02	5.8372610320e-10	4	3.7507559630e-02	3.3828813760e-08	2	false	DILUPBiCGStab	3.5082494770e-02	2.4519690150e-09	2	true	DILUPBiCGStab	6.1332369270e-04	1.3420701370e-08	1	true	DICPCG	1.1644810260e-01	1.0023452770e-03	20	true
0.0019286247      	DILUPBiCGStab	9.3480666740e-03	3.0753127260e-04	1	true	smoothSolver	8.4316346960e-02	2.4312153300e-09	4	2.0482697160e-02	7.9430964570e-10	4	3.5313241100e-02	4.3087377020e-08	2	false	DILUPBiCGStab	3.2720092300e-02	6.7849828580e-09	2	true	DILUPBiCGStab	5.9935804530e-04	1.5853332500e-08	1	true	DICPCG	1.0785515080e-01	9.6799087980e-04	20	true
0.0021209215      	DILUPBiCGStab	8.4161806580e-03	2.6264544130e-04	1	true	smoothSolver	8.2436402850e-02	3.2800810150e-09	4	1.9215515050e-02	9.5241881370e-10	4	3.3254277460e-02	5.2460650750e-08	2	false	DILUPBiCGStab	3.0738357840e-02	1.7071530330e-09	2	true	DILUPBiCGStab	5.8791277420e-04	1.9055907710e-08	1	true	DICPCG	9.9653404090e-02	9.4501242820e-04	20	true
0.0023166797      	DILUPBiCGStab	7.6030706890e-03	2.2652378700e-04	1	true	smoothSolver	7.7018474990e-02	3.4228682670e-09	4	1.7875056520e-02	1.0980088320e-09	4	3.1161875160e-02	5.8849277780e-08	2	false	DILUPBiCGStab	2.8857238620e-02	7.4150202180e-08	2	true	DILUPBiCGStab	5.7463465010e-04	2.3189774830e-08	1	true	DICPCG	9.2152225200e-02	8.6880268730e-04	20	true
0.0025136219      	DILUPBiCGStab	6.8536064260e-03	1.9500137160e-04	1	true	smoothSolver	7.0164388520e-02	2.7208647600e-09	4	1.6468737430e-02	1.1846344510e-09	4	2.9017187670e-02	6.1799582260e-08	2	false	DILUPBiCGStab	2.6983321910e-02	4.8944781040e-08	2	true	DILUPBiCGStab	5.5772512090e-04	2.7839657960e-08	1	true	DICPCG	8.4754105030e-02	7.9422683430e-04	20	true
0.002710167       	DILUPBiCGStab	6.1833727080e-03	1.7083082740e-04	1	true	smoothSolver	6.2160065640e-02	1.8015584600e-09	4	1.5014756250e-02	1.1049398660e-09	4	2.6724793090e-02	6.5426946910e-08	2	false	DILUPBiCGStab	2.5124816030e-02	3.4757896920e-08	2	true	DILUPBiCGStab	5.3811638020e-04	3.1549953750e-08	1	true	DICPCG	7.7902128360e-02	7.1206172410e-04	20	true
0.0029039714      	DILUPBiCGStab	5.5592013540e-03	1.4902434190e-04	1	true	smoothSolver	5.5475806120e-02	1.1977397420e-09	4	1.3616347190e-02	9.4311170810e-10	4	2.4518916290e-02	6.6379537890e-08	2	false	DILUPBiCGStab	2.3287577760e-02	2.8609897010e-08	2	true	DILUPBiCGStab	5.1435336360e-04	3.4473456810e-08	1	true	DICPCG	7.1428127210e-02	5.8766057420e-04	20	true
0.0030943558      	DILUPBiCGStab	5.0185232440e-03	1.2978283330e-04	1	true	smoothSolver	5.1173583980e-02	9.7970086030e-10	4	1.2327631750e-02	7.6629781200e-10	4	2.2563083830e-02	6.7431889510e-08	2	false	DILUPBiCGStab	2.1598239560e-02	2.4373856200e-08	2	true	DILUPBiCGStab	4.9055701290e-04	3.5412277880e-08	1	true	DICPCG	6.5438508480e-02	5.9383435310e-04	20	true
0.0032814323      	DILUPBiCGStab	4.5632978840e-03	1.1414232350e-04	1	true	smoothSolver	4.8485524640e-02	8.5430117150e-10	4	1.1238218180e-02	6.3284016570e-10	4	2.0857881280e-02	6.8198126730e-08	2	false	DILUPBiCGStab	2.0156118590e-02	2.1204032500e-08	2	true	DILUPBiCGStab	4.6878380890e-04	3.6009273510e-08	1	true	DICPCG	6.0163162080e-02	5.1537556760e-04	20	true
0.003464959       	DILUPBiCGStab	4.1682269230e-03	1.0002403310e-04	1	true	smoothSolver	4.6251529620e-02	6.8311265930e-10	4	1.0258457130e-02	5.1943505740e-10	4	1.9526626390e-02	6.7647401150e-08	2	false	DILUPBiCGStab	1.8870942790e-02	1.7875323390e-08	2	true	DILUPBiCGStab	4.4784890750e-04	3.5784101990e-08	1	true	DICPCG	5.5731519610e-02	4.3817991630e-04	20	true
0.0036457362      	DILUPBiCGStab	3.8444053600e-03	8.9434827410e-05	1	true	smoothSolver	4.3697733940e-02	5.2185108100e-10	4	9.4452063680e-03	4.4515737710e-10	4	1.8403038660e-02	6.7618260950e-08	2	false	DILUPBiCGStab	1.7808622530e-02	1.5510422470e-08	2	true	DILUPBiCGStab	4.3044339810e-04	3.5636430060e-08	1	true	DICPCG	5.2238898830e-02	3.7722408710e-04	20	true
0.0038248334      	DILUPBiCGStab	3.5824593430e-03	8.1881164330e-05	1	true	smoothSolver	4.1534879450e-02	3.9858839690e-10	4	8.7788982830e-03	4.0061193200e-10	4	1.7433554270e-02	6.9469473640e-08	2	false	DILUPBiCGStab	1.6957511520e-02	1.4275693740e-08	2	true	DILUPBiCGStab	4.1684589070e-04	3.5830832760e-08	1	true	DICPCG	4.9273361770e-02	4.6145995170e-04	19	true
0.004003266       	DILUPBiCGStab	3.3694668680e-03	7.6354245940e-05	1	true	smoothSolver	4.1798416900e-02	3.0871853540e-10	4	8.2585923730e-03	3.7587251680e-10	4	1.6612557030e-02	7.2931425270e-08	2	false	DILUPBiCGStab	1.6292638720e-02	1.4091555890e-08	2	true	DILUPBiCGStab	4.0661283450e-04	3.6291185220e-08	1	true	DICPCG	4.6805996820e-02	4.5459272390e-04	18	true
0.0041813675      	DILUPBiCGStab	3.1847944900e-03	7.1865913640e-05	1	true	smoothSolver	4.3769631060e-02	2.5273847500e-10	4	7.9531784130e-03	3.5534622530e-10	4	1.5929073350e-02	7.6818379340e-08	2	false	DILUPBiCGStab	1.5717948360e-02	1.3830931300e-08	2	true	DILUPBiCGStab	3.9799937910e-04	3.6427638670e-08	1	true	DICPCG	4.4823548530e-02	4.0344349480e-04	19	true
0.0043598007      	DILUPBiCGStab	3.0293513330e-03	6.8549205880e-05	1	true	smoothSolver	4.6166532630e-02	2.3607922310e-10	4	7.7003282150e-03	3.4373983020e-10	4	1.5352571570e-02	8.1456967030e-08	2	false	DILUPBiCGStab	1.5251397480e-02	1.3608870460e-08	2	true	DILUPBiCGStab	3.9160178340e-04	3.6308635330e-08	1	true	DICPCG	4.3091499550e-02	4.0219246450e-04	19	true
0.0045385675      	DILUPBiCGStab	2.8877359630e-03	6.5515651430e-05	1	true	smoothSolver	4.8560020960e-02	2.2914756780e-10	4	7.4637256710e-03	3.3599712160e-10	4	1.4804152110e-02	8.5587999910e-08	2	false	DILUPBiCGStab	1.4826558480e-02	1.3156035250e-08	2	true	DILUPBiCGStab	3.8589521060e-04	3.4921906150e-08	1	true	DICPCG	4.1502823680e-02	3.8853290910e-04	19	true
0.0047176696      	DILUPBiCGStab	2.7580774530e-03	6.2695036300e-05	1	true	smoothSolver	5.0914855490e-02	2.2010790230e-10	4	7.2426107880e-03	3.2912056290e-10	4	1.4286663610e-02	8.9129959960e-08	2	false	DILUPBiCGStab	1.4437284180e-02	1.2499967320e-08	2	true	DILUPBiCGStab	3.8093736370e-04	3.1310077690e-08	1	true	DICPCG	4.0046623530e-02	3.8764917070e-04	18	true
0.004897109       	DILUPBiCGStab	2.6389535430e-03	6.0143037100e-05	1	true	smoothSolver	5.3702180690e-02	1.9929890790e-10	4	7.0348088520e-03	3.2325082300e-10	4	1.3831521820e-02	9.1940555030e-08	2	false	DILUPBiCGStab	1.4086340020e-02	1.1747937250e-08	2	true	DILUPBiCGStab	3.7679194640e-04	2.5281059100e-08	1	true	DICPCG	3.8715038390e-02	3.5436939590e-04	18	true
0.0050765484      	DILUPBiCGStab	2.5243840690e-03	5.7518926750e-05	1	true	smoothSolver	5.6219068550e-02	1.7302233610e-10	4	6.8275708210e-03	3.1363201460e-10	4	1.3392822090e-02	9.3783766700e-08	2	false	DILUPBiCGStab	1.3743100620e-02	1.0898584500e-08	2	true	DILUPBiCGStab	3.7279870490e-04	1.7904873520e-08	1	true	DICPCG	3.7454506980e-02	3.5908598760e-04	17	true
0.0052559878      	DILUPBiCGStab	2.4186937580e-03	5.5061602870e-05	1	true	smoothSolver	5.7938987470e-02	1.5046766940e-10	4	6.6272974330e-03	3.0389159120e-10	4	1.2992912480e-02	9.5383156190e-08	2	false	DILUPBiCGStab	1.3426516090e-02	1.0104934210e-08	2	true	DILUPBiCGStab	3.6971931480e-04	1.1055284510e-08	1	true	DICPCG	3.6333016440e-02	3.3289476250e-04	17	true
0.0054354273      	DILUPBiCGStab	2.3210678520e-03	5.2833762600e-05	1	true	smoothSolver	5.8869879730e-02	1.3713504060e-10	4	6.4298304760e-03	2.9420107530e-10	4	1.2636149190e-02	9.6849647650e-08	2	false	DILUPBiCGStab	1.3134260950e-02	9.4298507490e-09	2	true	DILUPBiCGStab	3.6767085080e-04	1.7954520240e-08	1	true	DICPCG	3.5333801030e-02	3.0772262160e-04	17	true
0.0056148667      	DILUPBiCGStab	2.2306156950e-03	5.0816004540e-05	1	true	smoothSolver	5.9204875250e-02	1.3842508430e-10	4	6.2356584120e-03	2.8663657260e-10	4	1.2317232350e-02	9.6914045810e-08	2	false	DILUPBiCGStab	1.2864708150e-02	8.9000681770e-09	2	true	DILUPBiCGStab	3.6684485210e-04	2.7525020620e-08	1	true	DICPCG	3.4408034950e-02	2.8293674090e-04	17	true
0.0057943061      	DILUPBiCGStab	2.1466420850e-03	4.8826519870e-05	1	true	smoothSolver	5.8974725030e-02	1.5987338380e-10	4	6.0509328110e-03	2.8124523680e-10	4	1.2050888740e-02	9.4232236070e-08	2	false	DILUPBiCGStab	1.2616170150e-02	8.4284528040e-09	2	true	DILUPBiCGStab	3.6749400910e-04	3.8061846300e-08	1	true	DICPCG	3.3607859130e-02	2.5493750890e-04	17	true
0.005972726       	DILUPBiCGStab	2.0569965430e-03	4.6350126640e-05	1	true	smoothSolver	5.7990241620e-02	2.1053926160e-10	4	5.8412070810e-03	2.6840999990e-10	4	1.1748118970e-02	8.8860086130e-08	2	false	DILUPBiCGStab	1.2319795220e-02	7.6367237680e-09	2	true	DILUPBiCGStab	3.6772077490e-04	4.8255915240e-08	1	true	DICPCG	3.2714177630e-02	2.8925642890e-04	16	true
0.0061286584      	DILUPBiCGStab	1.7363916620e-03	3.1121841290e-05	1	true	smoothSolver	5.0223828440e-02	1.4502435960e-10	4	4.9768488870e-03	1.0591910670e-10	4	1.0112767010e-02	5.6535069480e-08	2	false	DILUPBiCGStab	1.0631881220e-02	3.7041692130e-09	2	true	DILUPBiCGStab	3.2502232910e-04	3.8534706850e-08	1	true	DICPCG	2.8156683900e-02	1.9780805030e-04	15	true
0.0062700309      	DILUPBiCGStab	1.5278065580e-03	2.3028862470e-05	1	true	smoothSolver	4.4816084920e-02	1.1998904040e-10	4	4.4037723880e-03	5.5339182040e-11	4	9.0478317500e-03	4.2931109830e-08	2	false	DILUPBiCGStab	9.5414682610e-03	2.5918732530e-09	2	true	DILUPBiCGStab	2.9915080320e-04	3.3105699610e-08	1	true	DICPCG	2.5242056070e-02	2.1987772580e-04	13	true
0.0064002114      	DILUPBiCGStab	1.3700050140e-03	1.7834374600e-05	1	true	smoothSolver	4.0532676050e-02	1.0598739410e-10	4	3.9626128620e-03	3.3210174040e-11	4	8.2379162600e-03	3.5912532940e-08	2	false	DILUPBiCGStab	8.7112607440e-03	1.9629016780e-09	2	true	DILUPBiCGStab	2.8050760410e-04	2.9229441520e-08	1	true	DICPCG	2.3014188650e-02	1.8687467430e-04	12	true
0.0065216119      	DILUPBiCGStab	1.2472841000e-03	1.4301990640e-05	1	true	smoothSolver	3.7160304950e-02	9.8268206640e-11	4	3.6260317310e-03	2.2830648590e-11	4	7.6139071720e-03	3.1986783280e-08	2	false	DILUPBiCGStab	8.0650606940e-03	1.5793945210e-09	2	true	DILUPBiCGStab	2.6715071880e-04	2.6336338710e-08	1	true	DICPCG	2.1243830750e-02	1.9568942680e-04	11	true
0.0066357492      	DILUPBiCGStab	1.1471287190e-03	1.1744370340e-05	1	true	smoothSolver	3.4449471260e-02	9.3144915380e-11	4	3.3680267910e-03	1.7206341960e-11	4	7.1016291110e-03	2.9555078280e-08	2	false	DILUPBiCGStab	7.5362801550e-03	1.3607273230e-09	2	true	DILUPBiCGStab	2.5683268890e-04	2.4096926120e-08	1	true	DICPCG	1.9775437390e-02	1.3737735620e-04	11	true
0.0067438096      	DILUPBiCGStab	1.0641571970e-03	9.8501259890e-06	1	true	smoothSolver	3.2157462630e-02	9.0448868470e-11	4	3.1532936090e-03	1.4036631920e-11	4	6.6807899230e-03	2.8025857610e-08	2	false	DILUPBiCGStab	7.0967180020e-03	1.2290319410e-09	2	true	DILUPBiCGStab	2.4897706480e-04	2.2243315970e-08	1	true	DICPCG	1.8524467680e-02	1.4457529230e-04	10	true
0.0068468552      	DILUPBiCGStab	9.9566813060e-04	8.4381798670e-06	1	true	smoothSolver	3.0221359520e-02	8.9720425280e-11	4	2.9735079460e-03	1.2372997950e-11	4	6.3405101500e-03	2.7107105940e-08	2	false	DILUPBiCGStab	6.7378935820e-03	1.1506761690e-09	2	true	DILUPBiCGStab	2.4320792590e-04	2.0448042980e-08	1	true	DICPCG	1.7488734880e-02	1.0870068300e-04	10	true
0.006945639       	DILUPBiCGStab	9.3759278310e-04	7.3385331370e-06	1	true	smoothSolver	2.8518801710e-02	9.0072849370e-11	4	2.8175719270e-03	1.1410434210e-11	4	6.0491052360e-03	2.6504329540e-08	2	false	DILUPBiCGStab	6.4339382900e-03	1.0956766920e-09	2	true	DILUPBiCGStab	2.3892377750e-04	1.8890293810e-08	1	true	DICPCG	1.6596103470e-02	1.2199493160e-04	9	true
0.007040884       	DILUPBiCGStab	8.8886925560e-04	6.4951946880e-06	1	true	smoothSolver	2.7029068620e-02	9.2144586880e-11	4	2.6839502620e-03	1.1038701320e-11	4	5.8136507690e-03	2.6201867790e-08	2	false	DILUPBiCGStab	6.1840969460e-03	1.0802789720e-09	2	true	DILUPBiCGStab	2.3619796320e-04	1.7836444600e-08	1	true	DICPCG	1.5853808090e-02	1.1666217730e-04	9	true
0.0071331053      	DILUPBiCGStab	8.4693526790e-04	5.8243414910e-06	1	true	smoothSolver	2.5704051960e-02	9.5235776470e-11	4	2.5650871570e-03	1.0954456490e-11	4	5.6062112990e-03	2.6072528300e-08	2	false	DILUPBiCGStab	5.9733579870e-03	1.0850157950e-09	2	true	DILUPBiCGStab	2.3445719350e-04	1.7038337980e-08	1	true	DICPCG	1.5219073730e-02	9.6692983090e-05	9	true
0.0072227452      	DILUPBiCGStab	8.1068617010e-04	5.2848905670e-06	1	true	smoothSolver	2.4496716570e-02	9.9188042260e-11	4	2.4589741890e-03	1.1117213910e-11	4	5.4349748580e-03	2.6054285070e-08	2	false	DILUPBiCGStab	5.7957454640e-03	1.1159634410e-09	2	true	DILUPBiCGStab	2.3356150350e-04	1.6299144660e-08	1	true	DICPCG	1.4680336870e-02	8.0134597030e-05	9	true
0.0073102709      	DILUPBiCGStab	7.7999352410e-04	4.8581033350e-06	1	true	smoothSolver	2.3407558370e-02	1.0445337730e-10	4	2.3657928160e-03	1.1502221070e-11	4	5.2878041590e-03	2.6215000530e-08	2	false	DILUPBiCGStab	5.6528078740e-03	1.1712860600e-09	2	true	DILUPBiCGStab	2.3336050330e-04	1.5506973820e-08	1	true	DICPCG	1.4233446140e-02	1.2469788360e-04	8	true
0.0073961743      	DILUPBiCGStab	7.5474903280e-04	4.5333656360e-06	1	true	smoothSolver	2.2455304260e-02	1.1180228450e-10	4	2.2863663750e-03	1.2204509610e-11	4	5.1740388320e-03	2.6578257820e-08	2	false	DILUPBiCGStab	5.5461754400e-03	1.2457805460e-09	2	true	DILUPBiCGStab	2.3426344630e-04	1.5247493950e-08	1	true	DICPCG	1.3883582110e-02	1.0087225520e-04	8	true
0.0074806668      	DILUPBiCGStab	7.3222764430e-04	4.2590122640e-06	1	true	smoothSolver	2.1572051910e-02	1.2022526330e-10	4	2.2119534640e-03	1.3028095270e-11	4	5.0720109270e-03	2.6925061630e-08	2	false	DILUPBiCGStab	5.4574530640e-03	1.3243092560e-09	2	true	DILUPBiCGStab	2.3562470340e-04	1.5265472160e-08	1	true	DICPCG	1.3576387000e-02	9.1818943330e-05	8	true
0.0075640927      	DILUPBiCGStab	7.1341318840e-04	4.0478842820e-06	1	true	smoothSolver	2.0814920700e-02	1.3070259140e-10	4	2.1469135270e-03	1.4115609430e-11	4	4.9911876550e-03	2.7395228700e-08	2	false	DILUPBiCGStab	5.3953219470e-03	1.4154009960e-09	2	true	DILUPBiCGStab	2.3780728530e-04	1.5646222260e-08	1	true	DICPCG	1.3342225120e-02	8.4541479720e-05	8	true
0.0076467724      	DILUPBiCGStab	6.9791412500e-04	3.8903926570e-06	1	true	smoothSolver	2.0187857660e-02	1.4325188330e-10	4	2.0902543790e-03	1.5462130040e-11	4	4.9283063000e-03	2.7990352000e-08	2	false	DILUPBiCGStab	5.3581716340e-03	1.5168042460e-09	2	true	DILUPBiCGStab	2.4079558510e-04	1.6277035240e-08	1	true	DICPCG	1.3169313270e-02	7.9028844480e-05	8	true
0.0077290837      	DILUPBiCGStab	6.8604159330e-04	3.7892720790e-06	1	true	smoothSolver	1.9682648490e-02	1.5931931730e-10	4	2.0418147150e-03	1.7227916010e-11	4	4.8888614060e-03	2.8837185170e-08	2	false	DILUPBiCGStab	5.3490463810e-03	1.6272923030e-09	2	true	DILUPBiCGStab	2.4462608660e-04	1.7082115830e-08	1	true	DICPCG	1.3069611080e-02	7.7127224110e-05	8	true
0.0078112483      	DILUPBiCGStab	6.7634194530e-04	3.7200170550e-06	1	true	smoothSolver	1.9256632200e-02	1.7788247570e-10	4	1.9981279230e-03	1.9302896080e-11	4	4.8620773750e-03	2.9757622310e-08	2	false	DILUPBiCGStab	5.3580817090e-03	1.7578900690e-09	2	true	DILUPBiCGStab	2.4888648510e-04	1.7949071850e-08	1	true	DICPCG	1.3004707140e-02	7.6615585660e-05	8	true
0.0078921157      	DILUPBiCGStab	6.5759018550e-04	3.5091775930e-06	1	true	smoothSolver	1.8599089590e-02	1.8019652050e-10	4	1.9268553180e-03	1.9567237470e-11	4	4.7673024250e-03	2.9152791710e-08	2	false	DILUPBiCGStab	5.2982225380e-03	1.7990135560e-09	2	true	DILUPBiCGStab	2.4966194520e-04	1.7737373930e-08	1	true	DICPCG	1.2770576230e-02	7.0099543640e-05	8	true
0.0079713823      	DILUPBiCGStab	6.3700377550e-04	3.2735026720e-06	1	true	smoothSolver	1.7903277580e-02	1.7589808310e-10	4	1.8500441390e-03	1.9134265270e-11	4	4.6595497310e-03	2.8012655140e-08	2	false	DILUPBiCGStab	5.2216882160e-03	1.8286301350e-09	2	true	DILUPBiCGStab	2.4922532510e-04	1.7058207830e-08	1	true	DICPCG	1.2486633760e-02	1.1136210270e-04	7	true
0.0080491749      	DILUPBiCGStab	6.1806194760e-04	3.0658368280e-06	1	true	smoothSolver	1.7281977170e-02	1.7023490410e-10	4	1.7787565360e-03	1.8620162140e-11	4	4.5551900810e-03	2.6813715870e-08	2	false	DILUPBiCGStab	5.1588652670e-03	1.8795741330e-09	2	true	DILUPBiCGStab	2.4900995690e-04	1.6327800280e-08	1	true	DICPCG	1.2230777460e-02	9.4242215970e-05	7	true
0.0081257368      	DILUPBiCGStab	6.0159709730e-04	2.8959203920e-06	1	true	smoothSolver	1.6768256000e-02	1.6514434860e-10	4	1.7148615690e-03	1.8236670390e-11	4	4.4698341430e-03	2.5725576030e-08	2	false	DILUPBiCGStab	5.1105658660e-03	1.9379432690e-09	2	true	DILUPBiCGStab	2.4887958900e-04	1.5862258540e-08	1	true	DICPCG	1.2014864930e-02	9.3270797840e-05	7	true
0.0082011672      	DILUPBiCGStab	5.8637721280e-04	2.7450111360e-06	1	true	smoothSolver	1.6319060410e-02	1.5950183800e-10	4	1.6552442490e-03	1.7766715690e-11	4	4.3880061200e-03	2.4607786730e-08	2	false	DILUPBiCGStab	5.0761963300e-03	2.0235396600e-09	2	true	DILUPBiCGStab	2.4918028920e-04	1.5296851710e-08	1	true	DICPCG	1.1820500270e-02	9.9707871840e-05	7	true
0.0082756188      	DILUPBiCGStab	5.7275396720e-04	2.6166548060e-06	1	true	smoothSolver	1.5926755530e-02	1.5458153920e-10	4	1.6021535240e-03	1.7310282350e-11	4	4.3150130950e-03	2.3487441950e-08	2	false	DILUPBiCGStab	5.0474863820e-03	2.2386222540e-09	2	true	DILUPBiCGStab	2.5039609720e-04	1.4761527860e-08	1	true	DICPCG	1.1655823580e-02	9.7786460730e-05	7	true
0.0083492339      	DILUPBiCGStab	5.6057995470e-04	2.5074703250e-06	1	true	smoothSolver	1.5583688300e-02	1.5091551660e-10	4	1.5539507010e-03	1.6864578670e-11	4	4.2529398300e-03	2.2393878660e-08	2	false	DILUPBiCGStab	5.0390459830e-03	2.4388617830e-09	2	true	DILUPBiCGStab	2.5154853350e-04	1.4257378830e-08	1	true	DICPCG	1.1512422640e-02	9.4634440670e-05	7	true
0.0084221462      	DILUPBiCGStab	5.4973037810e-04	2.4145557840e-06	1	true	smoothSolver	1.5291328080e-02	1.4858019270e-10	4	1.5098321940e-03	1.6420943570e-11	4	4.1952683810e-03	2.1340004720e-08	2	false	DILUPBiCGStab	5.0420571870e-03	2.6263452160e-09	2	true	DILUPBiCGStab	2.5303491300e-04	1.3811494320e-08	1	true	DICPCG	1.1401274120e-02	9.1668825860e-05	7	true
0.0084944255      	DILUPBiCGStab	5.3967462800e-04	2.3312250070e-06	1	true	smoothSolver	1.5043660720e-02	1.4649041620e-10	4	1.4683266990e-03	1.5873812480e-11	4	4.1457481430e-03	2.0234193010e-08	2	false	DILUPBiCGStab	5.0573702430e-03	2.7935707220e-09	2	true	DILUPBiCGStab	2.5493869590e-04	1.3364769550e-08	1	true	DICPCG	1.1295759990e-02	8.7400864780e-05	7	true
0.0085661946      	DILUPBiCGStab	5.3077141450e-04	2.2619065230e-06	1	true	smoothSolver	1.4823175720e-02	1.4498451950e-10	4	1.4294865490e-03	1.5281899910e-11	4	4.1017818240e-03	1.9156411630e-08	2	false	DILUPBiCGStab	5.0937214390e-03	2.9587248140e-09	2	true	DILUPBiCGStab	2.5700330310e-04	1.2997008080e-08	1	true	DICPCG	1.1214981190e-02	8.2757166230e-05	7	true
0.0086375158      	DILUPBiCGStab	5.2253446120e-04	2.2004535390e-06	1	true	smoothSolver	1.4629252070e-02	1.4298751040e-10	4	1.3930251900e-03	1.4532803030e-11	4	4.0616461590e-03	1.8059828630e-08	2	false	DILUPBiCGStab	5.1361382150e-03	3.1424761860e-09	2	true	DILUPBiCGStab	2.5886790440e-04	1.2749609350e-08	1	true	DICPCG	1.1141664900e-02	7.7146599970e-05	7	true
0.0087085045      	DILUPBiCGStab	5.1532117720e-04	2.1509865840e-06	1	true	smoothSolver	1.4494210840e-02	1.4069454620e-10	4	1.3610605110e-03	9.5575555980e-08	2	4.0304411510e-03	1.6972159940e-08	2	false	DILUPBiCGStab	5.1892817800e-03	3.2650105430e-09	2	true	DILUPBiCGStab	2.6071930610e-04	1.2628321990e-08	1	true	DICPCG	1.1080071850e-02	7.2823524660e-05	7	true
0.0087792731      	DILUPBiCGStab	5.0907191540e-04	2.1126830180e-06	1	true	smoothSolver	1.4400152410e-02	1.3776926820e-10	4	1.3325653370e-03	8.3697163250e-08	2	4.0027918960e-03	1.5922340540e-08	2	false	DILUPBiCGStab	5.2502587050e-03	3.3421289130e-09	2	true	DILUPBiCGStab	2.6251170390e-04	1.2587054290e-08	1	true	DICPCG	1.1042339770e-02	7.0680217320e-05	7	true
0.0088498228      	DILUPBiCGStab	5.0296169480e-04	2.0755024210e-06	1	true	smoothSolver	1.4332741960e-02	1.3246974840e-10	4	1.3100976880e-03	7.1689560750e-08	2	3.9774833030e-03	1.4836112330e-08	2	false	DILUPBiCGStab	5.3251807590e-03	3.4714351680e-09	2	true	DILUPBiCGStab	2.6482560580e-04	1.2369075100e-08	1	true	DICPCG	1.0993235310e-02	6.9816984120e-05	7	true
0.0089202634      	DILUPBiCGStab	4.9775215840e-04	2.0481955690e-06	1	true	smoothSolver	1.4298356870e-02	1.2562114530e-10	4	1.2931392710e-03	6.0328549310e-08	2	3.9574115690e-03	1.3797246740e-08	2	false	DILUPBiCGStab	5.4069447180e-03	3.6627776830e-09	2	true	DILUPBiCGStab	2.6750395490e-04	1.2253273810e-08	1	true	DICPCG	1.0963633030e-02	6.9070733750e-05	7	true
0.0089907041      	DILUPBiCGStab	4.9340613040e-04	2.0301470930e-06	1	true	smoothSolver	1.4286717750e-02	1.1702716600e-10	4	1.2800146680e-03	4.9958013380e-08	2	3.9420126210e-03	1.2811385010e-08	2	false	DILUPBiCGStab	5.5013159170e-03	3.9442632440e-09	2	true	DILUPBiCGStab	2.7061261860e-04	1.2166666030e-08	1	true	DICPCG	1.0948663820e-02	1.0905086470e-04	6	true
0.0090611447      	DILUPBiCGStab	4.8913979780e-04	2.0125462980e-06	1	true	smoothSolver	1.4285865180e-02	1.0574956430e-10	4	1.2705145060e-03	4.0979970930e-08	2	3.9289419840e-03	1.1826061530e-08	2	false	DILUPBiCGStab	5.6055844150e-03	4.2511260920e-09	2	true	DILUPBiCGStab	2.7431902490e-04	1.2085885050e-08	1	true	DICPCG	1.0922458260e-02	6.3955417470e-05	7	true
0.0091316399      	DILUPBiCGStab	4.8532544380e-04	1.9999521950e-06	1	true	smoothSolver	1.4321127260e-02	9.2557364250e-11	4	1.2669806510e-03	3.4131203950e-08	2	3.9161255880e-03	1.0889297230e-08	2	false	DILUPBiCGStab	5.7231164500e-03	4.6402863910e-09	2	true	DILUPBiCGStab	2.7843700120e-04	1.2166293640e-08	1	true	DICPCG	1.0908195960e-02	5.9975245630e-05	7	true
0.0092022447      	DILUPBiCGStab	4.8195110360e-04	1.9922665430e-06	1	true	smoothSolver	1.4397883220e-02	7.7858592580e-11	4	1.2692157280e-03	3.1500971940e-08	2	3.9081044630e-03	1.0017332730e-08	2	false	DILUPBiCGStab	5.8513179910e-03	5.0957897880e-09	2	true	DILUPBiCGStab	2.8264315640e-04	1.2227517140e-08	1	true	DICPCG	1.0892246830e-02	5.6017934410e-05	7	true
0.0092730146      	DILUPBiCGStab	4.7900663750e-04	1.9894317860e-06	1	true	smoothSolver	1.4528130140e-02	6.2449391660e-11	4	1.2778810320e-03	3.3584838700e-08	2	3.9026547190e-03	9.4020875700e-09	2	false	DILUPBiCGStab	5.9980971400e-03	5.6282880220e-09	2	true	DILUPBiCGStab	2.8697933880e-04	1.2403278300e-08	1	true	DICPCG	1.0880051730e-02	5.4506320430e-05	7	true