# Region type :   patch outlet
# Faces           : 398
# Area            : 8.2960538044e-02
# Scale factor    : 1.0000000000e+00
# Time            	sum(phi)
0.0022358089      	1.9170677906e+01
0.015074595       	1.9153795026e+01
0.019417862       	1.9148881950e+01
0.02396418        	1.9163338735e+01
0.029046906       	1.9468854536e+01
0.035079147       	2.3174638238e+01
0.042848386       	4.2558402094e+01
0.050267977       	5.3413368337e+01
0.059018304       	5.2175930101e+01
0.064555108       	5.2841610668e+01
0.069333754       	5.3800730776e+01
0.074031986       	5.4691055550e+01
0.079076699       	5.4678922728e+01
0.085546879       	5.4407526313e+01
0.094934731       	5.3297274783e+01
0.10313922        	5.3137079313e+01
0.10873802        	5.2795652227e+01
0.11382733        	5.0850951976e+01
0.11956691        	4.4958300645e+01
0.1278983         	3.1404021299e+01
0.1384236         	2.2261076297e+01
0.1463068         	1.9909055083e+01
0.15376161        	1.8392484047e+01
0.16411886        	1.9867505548e+01
0.17496074        	2.0835239048e+01
0.18389202        	2.0077856777e+01
0.19389938        	2.2237627585e+01
0.20287549        	3.0211602886e+01
0.21087766        	3.9715069504e+01
0.21893102        	4.7243682983e+01
0.22607067        	5.1397899367e+01
0.23281448        	5.3368383595e+01
0.23934335        	5.3575335404e+01
0.24537221        	5.3039910648e+01
0.2513013         	5.2615566886e+01
0.2570584         	5.2409995146e+01
0.26263488        	5.2403781614e+01
0.26836429        	5.2303680109e+01
0.2743891         	5.0981899831e+01
0.28048693        	4.7495276256e+01
0.28672054        	4.1712643099e+01
0.29318554        	3.4839633816e+01
0.2996755         	2.8799092907e+01
0.30670508        	2.4228740986e+01
0.31410293        	2.1674006881e+01
0.32152802        	2.0892587867e+01
0.32883437        	2.1063723597e+01
0.33614824        	2.1327823151e+01
0.34372807        	2.1456556990e+01
0.35136426        	2.2189596184e+01
0.35869725        	2.4749129363e+01
0.36572164        	2.9680121191e+01
0.37256522        	3.6278193289e+01
0.37924419        	4.2729707868e+01
0.38568366        	4.7488386223e+01
0.39186775        	5.0332807051e+01
0.39789164        	5.1811450948e+01
0.40376549        	5.2463882611e+01
0.4095331         	5.2662169265e+01
0.4152862         	5.2790649795e+01
0.42103623        	5.2869244716e+01
0.42677634        	5.2703070167e+01
0.43258015        	5.1888905986e+01
0.43853792        	4.9917161662e+01
0.44464555        	4.6314987510e+01
0.45090736        	4.1189889284e+01
0.45735724        	3.5383587982e+01
0.46401328        	3.0074272581e+01
0.47087205        	2.6164079138e+01
0.47790224        	2.3810755967e+01
0.48503055        	2.2555642566e+01
0.49215886        	2.1848138818e+01
0.49928717        	2.1428775106e+01
0.50654305        	2.1490559856e+01
0.51391578        	2.2644785234e+01
0.52124611        	2.5520110072e+01
0.52834646        	3.0168396478e+01
0.53524346        	3.5858971929e+01
0.54194588        	4.1351199255e+01
0.54843601        	4.5595269383e+01
0.55468804        	4.8346640624e+01
0.56075064        	5.0030848451e+01
0.56666094        	5.1119867025e+01
0.57248489        	5.1862746732e+01
0.57827754        	5.2372626685e+01
0.5840702         	5.2583177215e+01
0.58986285        	5.2238014147e+01
0.59565551        	5.0995515381e+01
0.60151335        	4.8579483290e+01
0.60764366        	4.4864787913e+01
0.61392866        	4.0192746087e+01
0.62038347        	3.5207268899e+01
0.62701967        	3.0726908416e+01
0.63380925        	2.7313783618e+01
0.64070947        	2.5017090966e+01
0.64768621        	2.3494475940e+01
0.65472885        	2.2447842214e+01
0.66185577        	2.1884775940e+01
0.66908725        	2.2148355150e+01
0.67636084        	2.3765895703e+01
0.68362701        	2.7039795204e+01
0.69075048        	3.1634386858e+01
0.69760936        	3.6681677039e+01
0.70431512        	4.1328201541e+01
0.71076753        	4.4901958522e+01
0.71700918        	4.7378515748e+01
0.72308645        	4.9030356278e+01
0.72903267        	5.0154697435e+01
0.73490939        	5.0902509528e+01
0.74075449        	5.1281462739e+01
0.74659308        	5.1152709128e+01
0.75247928        	5.0264674229e+01
0.75844972        	4.8349301358e+01
0.76454871        	4.5322935056e+01
0.77078072        	4.1394580824e+01
0.77715572        	3.6996613290e+01
0.78369121        	3.2725640875e+01
0.79034786        	2.9110465105e+01
0.79700451        	2.6379693877e+01
0.8037992         	2.4382459336e+01
0.81076619        	2.2948093449e+01
0.8178173         	2.2058929621e+01
0.82496651        	2.1906615017e+01
0.8321749         	2.2841386864e+01
0.83938614        	2.5138354328e+01
0.84652367        	2.8668495457e+01
0.85350795        	3.2858392296e+01
0.86028765        	3.6969171920e+01
0.8668461         	4.0433702135e+01
0.87319812        	4.3067388299e+01
0.87937931        	4.4985854351e+01
0.88542134        	4.6367629470e+01
0.89137181        	4.7338490768e+01
0.89732229        	4.7917608117e+01
0.90323708        	4.8008894354e+01
0.90915038        	4.7449630369e+01
0.91513538        	4.6044245107e+01
0.92123043        	4.3688424433e+01
0.92746791        	4.0494114491e+01
0.93383245        	3.6801971106e+01
0.94032839        	3.3072404212e+01
0.94696481        	2.9737558260e+01
0.95372123        	2.7016966246e+01
0.96057499        	2.4930282426e+01
0.96751586        	2.3421538799e+01
0.97453265        	2.2497596779e+01
0.98160691        	2.2301375768e+01
0.98881559        	2.3077494717e+01
0.99603134        	2.5003785864e+01
1.0031876         	2.7981013027e+01
1.010175          	3.1550630921e+01
1.0169856         	3.5141834449e+01
1.0235836         	3.8266848921e+01
1.0299801         	4.0736452028e+01
1.0362105         	4.2600375655e+01
1.0423101         	4.3974612939e+01
1.04832           	4.4932090111e+01
1.0542888         	4.5475368795e+01
1.0602253         	4.5540360038e+01
1.066186          	4.5021847441e+01
1.0722053         	4.3795207821e+01
1.0783354         	4.1789527717e+01
1.0845902         	3.9094323821e+01
1.0909845         	3.5951165070e+01
1.0974241         	3.2766955942e+01
1.1039837         	2.9850413083e+01
1.1107137         	2.7375832174e+01
1.1175464         	2.5415047169e+01
1.1244692         	2.3978863121e+01
1.131469          	2.3120786382e+01
1.1385409         	2.2980827925e+01
1.1456638         	2.3729260051e+01
1.1528054         	2.5457699157e+01
1.1598818         	2.8055192374e+01
1.1668582         	3.1190659691e+01
1.1736852         	3.4396074435e+01
1.180318          	3.7257459683e+01
1.186761          	3.9582267212e+01
1.1930653         	4.1383086157e+01
1.1993696         	4.2744320120e+01
