# Region type :   patch branch_inlet
# Faces           : 281
# Area            : 1.2977003709e-02
# Scale factor    : 1.0000000000e+00
# Time            	sum(phi)
0.0022358089      	-5.3645693940e-01
0.01108658        	-5.3654792787e-01
0.02050321        	-5.4065068785e-01
0.028212545       	-5.4169978781e-01
0.034384994       	-5.4367754590e-01
0.039952598       	-5.4372662569e-01
0.045143099       	-5.4458925553e-01
0.049837234       	-5.4515426083e-01
0.054418945       	-5.4547547860e-01
0.058905116       	-5.4623765031e-01
0.063195479       	-5.4669743983e-01
0.067309612       	-5.4680045939e-01
0.071209283       	-5.4702421226e-01
0.074872269       	-5.4724998764e-01
0.078380861       	-5.4726797107e-01
0.081825014       	-5.4719330410e-01
0.085235011       	-5.4716693559e-01
0.088586129       	-5.4714156888e-01
0.091871681       	-5.4708553138e-01
0.095108664       	-5.4707559743e-01
0.098264365       	-5.4710788689e-01
0.10139702        	-5.4707450945e-01
0.10448676        	-5.4691681403e-01
0.10757281        	-5.4668563188e-01
0.1106578         	-5.4646344212e-01
0.11373802        	-5.4628444436e-01
0.1168172         	-5.4616073275e-01
0.11990702        	-5.4610767406e-01
0.12301363        	-5.4609795667e-01
0.12613724        	-5.4605998842e-01
0.12927376        	-5.4595165940e-01
0.13241715        	-5.4579563816e-01
0.13556787        	-5.4563519245e-01
0.13872293        	-5.4549603694e-01
0.14189899        	-5.4539886804e-01
0.14511484        	-5.4535842356e-01
0.14839293        	-5.4535377095e-01
0.1517551         	-5.4535063423e-01
0.1552117         	-5.4535318308e-01
0.15875193        	-5.4539759865e-01
0.1623481         	-5.4550068001e-01
0.16598851        	-5.4564872347e-01
0.16968364        	-5.4580455044e-01
0.17345618        	-5.4593483806e-01
0.17731237        	-5.4606514081e-01
0.18124596        	-5.4626409498e-01
0.18523106        	-5.4655978120e-01
0.18922267        	-5.4690074283e-01
0.19321427        	-5.4719469903e-01
0.19720588        	-5.4739578658e-01
0.20116241        	-5.4755039004e-01
0.20500912        	-5.4772595060e-01
0.20882157        	-5.4793974359e-01
0.21261224        	-5.4815743107e-01
0.21637508        	-5.4833190225e-01
0.22009389        	-5.4845461262e-01
0.22375008        	-5.4854867908e-01
0.22733193        	-5.4863298101e-01
0.23083563        	-5.4870054818e-01
0.23426209        	-5.4872657576e-01
0.23761862        	-5.4869673595e-01
0.24091576        	-5.4862232917e-01
0.24416583        	-5.4853099726e-01
0.24737947        	-5.4844663416e-01
0.25056156        	-5.4837223321e-01
0.25371219        	-5.4828954720e-01
0.25682784        	-5.4817725736e-01
0.25991068        	-5.4802855126e-01
0.26296715        	-5.4785643378e-01
0.26600861        	-5.4768340824e-01
0.2690443         	-5.4752557051e-01
0.27209412        	-5.4738250507e-01
0.27515607        	-5.4724481174e-01
0.27822642        	-5.4710335431e-01
0.28131487        	-5.4695802379e-01
0.28440332        	-5.4681775733e-01
0.28749735        	-5.4668795350e-01
0.29062302        	-5.4656523298e-01
0.29374868        	-5.4644549861e-01
0.29687434        	-5.4632772417e-01
0.3               	-5.4621807349e-01
0.30319689        	-5.4612244045e-01
0.30643367        	-5.4604544536e-01
0.30972085        	-5.4598944684e-01
0.3130681         	-5.4595746167e-01
0.31648039        	-5.4595579265e-01
0.31995617        	-5.4598316315e-01
0.32349099        	-5.4602979005e-01
0.32707836        	-5.4608897864e-01
0.33071905        	-5.4616540684e-01
0.33442014        	-5.4626815730e-01
0.33818603        	-5.4640004608e-01
0.34201171        	-5.4655809646e-01
0.34587393        	-5.4673257367e-01
0.34974008        	-5.4690745899e-01
0.35359475        	-5.4707125091e-01
0.35742003        	-5.4722273339e-01
0.36121214        	-5.4736324668e-01
0.3649693         	-5.4749096637e-01
0.36868745        	-5.4760378284e-01
0.37235843        	-5.4769951143e-01
0.37597042        	-5.4777289874e-01
0.37950757        	-5.4781910581e-01
0.38295486        	-5.4783304162e-01
0.38629211        	-5.4780862347e-01
0.38949914        	-5.4774221136e-01
0.39256477        	-5.4763329696e-01
0.39547295        	-5.4748328303e-01
0.39823162        	-5.4729324958e-01
0.40088689        	-5.4706043149e-01
0.40331628        	-5.4679926906e-01
0.40560007        	-5.4650040070e-01
0.40775298        	-5.4616031311e-01
0.40979087        	-5.4578620081e-01
0.4117317         	-5.4538579140e-01
0.4135924         	-5.4496285961e-01
0.41538896        	-5.4452300735e-01
0.41713471        	-5.4406953937e-01
0.41884155        	-5.4360665635e-01
0.42052049        	-5.4313951330e-01
0.42218103        	-5.4267041001e-01
0.42383182        	-5.4220134100e-01
0.42548075        	-5.4173448287e-01
0.42713512        	-5.4127179149e-01
0.42880162        	-5.4081558327e-01
0.4304866         	-5.4036874032e-01
0.43219627        	-5.3993330544e-01
0.43393636        	-5.3951002312e-01
0.43571179        	-5.3910030701e-01
0.43752708        	-5.3870533413e-01
0.4393863         	-5.3832577135e-01
0.44129276        	-5.3796271149e-01
0.44324941        	-5.3761620645e-01
0.44525961        	-5.3728636011e-01
0.44732637        	-5.3697386301e-01
0.44945299        	-5.3667984782e-01
0.45164323        	-5.3640559945e-01
0.45390072        	-5.3615220481e-01
0.45623039        	-5.3592150175e-01
0.45863959        	-5.3571634688e-01
0.46113765        	-5.3554036047e-01
0.46373475        	-5.3539853377e-01
0.46644563        	-5.3529725006e-01
0.46928511        	-5.3524478536e-01
0.47226941        	-5.3524728186e-01
0.47540545        	-5.3530854036e-01
0.4786896         	-5.3542558032e-01
0.48210562        	-5.3558805790e-01
0.48562617        	-5.3578327145e-01
0.48924567        	-5.3600654067e-01
0.49296371        	-5.3626387630e-01
0.49676711        	-5.3656284984e-01
0.50059445        	-5.3689508075e-01
0.50457432        	-5.3724924622e-01
0.50851467        	-5.3757416538e-01
0.5123496         	-5.3784032344e-01
0.51606111        	-5.3804697616e-01
0.51966704        	-5.3820911556e-01
0.52319545        	-5.3834292913e-01
0.52666731        	-5.3845868044e-01
0.53009177        	-5.3856024720e-01
0.53346904        	-5.3864623876e-01
0.53679019        	-5.3871219239e-01
0.540045          	-5.3875179809e-01
0.54322257        	-5.3876061929e-01
0.54631741        	-5.3873593089e-01
0.54933017        	-5.3867826167e-01
0.55226742        	-5.3859133336e-01
0.55513806        	-5.3848021206e-01
0.55795113        	-5.3835047981e-01
0.56071618        	-5.3820671361e-01
0.56344098        	-5.3805214629e-01
0.56613075        	-5.3788867405e-01
0.5687863         	-5.3771704525e-01
0.57140946        	-5.3753711376e-01
0.57400226        	-5.3734867726e-01
0.57656768        	-5.3715274298e-01
0.57910949        	-5.3695186471e-01
0.58164167        	-5.3674839535e-01
0.58415727        	-5.3654738264e-01
0.58667984        	-5.3635147619e-01
0.58921702        	-5.3616416334e-01
0.59176983        	-5.3598803395e-01
0.59434176        	-5.3582468252e-01
0.59691369        	-5.3567498948e-01
0.59948561        	-5.3553767488e-01
0.6021161         	-5.3540853749e-01
0.60477917        	-5.3528767717e-01
0.60746231        	-5.3517516882e-01
0.61016623        	-5.3507206075e-01
0.6128942         	-5.3497969748e-01
0.61565135        	-5.3490008557e-01
0.61844439        	-5.3483672276e-01
0.62128171        	-5.3479412196e-01
0.62417223        	-5.3477623362e-01
0.62712529        	-5.3478759751e-01
0.63014758        	-5.3483159042e-01
0.63324246        	-5.3490909145e-01
0.63640887        	-5.3501865451e-01
0.63964201        	-5.3515658601e-01
0.64293594        	-5.3531888088e-01
0.64628787        	-5.3550377797e-01
0.64969778        	-5.3571166902e-01
0.65316704        	-5.3594380961e-01
0.65668961        	-5.3619852406e-01
0.66024871        	-5.3646716242e-01
0.66381385        	-5.3673516580e-01
0.66735575        	-5.3698756645e-01
0.67084719        	-5.3721428731e-01
0.67428093        	-5.3741272962e-01
0.67766056        	-5.3758601086e-01
0.68099113        	-5.3773908255e-01
0.68428003        	-5.3787601098e-01
0.68753137        	-5.3799852766e-01
0.69074616        	-5.3810586049e-01
0.69393315        	-5.3819570252e-01
0.69704436        	-5.3826406284e-01
0.70015221        	-5.3830844121e-01
0.70316378        	-5.3832614861e-01
0.7061168         	-5.3831763811e-01
0.70901312        	-5.3828408011e-01
0.71185738        	-5.3822771726e-01
0.71465317        	-5.3815148163e-01
0.71740745        	-5.3805802263e-01
0.72012371        	-5.3794961512e-01
0.72280578        	-5.3782802420e-01
0.72545677        	-5.3769464682e-01
0.72807955        	-5.3755081346e-01
0.73067701        	-5.3739792002e-01
0.73325324        	-5.3723740632e-01
0.73581221        	-5.3707130197e-01
0.73835903        	-5.3690200148e-01
0.74089931        	-5.3673152579e-01
0.74343751        	-5.3656265448e-01
0.74598083        	-5.3639721602e-01
0.74853229        	-5.3623717420e-01
0.75109648        	-5.3608362389e-01
0.75367559        	-5.3593736805e-01
0.75627023        	-5.3579857633e-01
0.75888116        	-5.3566720156e-01
0.76150878        	-5.3554296335e-01
0.76415401        	-5.3542596393e-01
0.76681745        	-5.3531669490e-01
0.76950136        	-5.3521620739e-01
0.77221036        	-5.3512624635e-01
0.77494818        	-5.3504929437e-01
0.77772016        	-5.3498801004e-01
0.78053426        	-5.3494585991e-01
0.78339511        	-5.3492530168e-01
0.78630764        	-5.3492883664e-01
0.78927327        	-5.3495771014e-01
0.79229178        	-5.3501199483e-01
0.79537507        	-5.3509131831e-01
0.79845836        	-5.3519252148e-01
0.80160261        	-5.3531666942e-01
0.80484774        	-5.3546534905e-01
0.80814771        	-5.3563604853e-01
0.81149727        	-5.3582714098e-01
0.81488615        	-5.3603393803e-01
0.81829901        	-5.3624846414e-01
0.82171709        	-5.3646212442e-01
0.82512242        	-5.3666717351e-01
0.82850386        	-5.3685905504e-01
0.83185633        	-5.3703659910e-01
0.83517816        	-5.3720042613e-01
0.83847047        	-5.3735156296e-01
0.84173092        	-5.3748975565e-01
0.84495839        	-5.3761387589e-01
0.84814979        	-5.3772218401e-01
0.85130092        	-5.3781256038e-01
0.8544083         	-5.3788357182e-01
0.85746975        	-5.3793365294e-01
0.86048343        	-5.3796224809e-01
0.86344907        	-5.3796932247e-01
0.86636676        	-5.3795527153e-01
0.86923897        	-5.3792086530e-01
0.87206761        	-5.3786767905e-01
0.87485605        	-5.3779732704e-01
0.87760718        	-5.3771166414e-01
0.88032495        	-5.3761239997e-01
0.88301124        	-5.3750140694e-01
0.88567226        	-5.3738031409e-01
0.88830979        	-5.3725087571e-01
0.8909368         	-5.3711455908e-01
0.89353671        	-5.3697414415e-01
0.89612203        	-5.3683139721e-01
0.89870734        	-5.3668725781e-01
0.90129366        	-5.3654369634e-01
0.90388168        	-5.3640220339e-01
0.90647441        	-5.3626390331e-01
0.90907437        	-5.3612945655e-01
0.9116831         	-5.3599942714e-01
0.91430209        	-5.3587423830e-01
0.91693315        	-5.3575434925e-01
0.91957741        	-5.3564052253e-01
0.92223787        	-5.3553372782e-01
0.92491644        	-5.3543516336e-01
0.92761671        	-5.3534632829e-01
0.93034192        	-5.3526897607e-01
0.93309571        	-5.3520492023e-01
0.93588163        	-5.3515583801e-01
0.93870373        	-5.3512390431e-01
0.94156573        	-5.3511048472e-01
0.94447043        	-5.3511703547e-01
0.94742028        	-5.3514454182e-01
0.95041723        	-5.3519338207e-01
0.95346201        	-5.3526350863e-01
0.95655482        	-5.3535445871e-01
0.95969398        	-5.3546542181e-01
0.96287708        	-5.3559477956e-01
0.96610083        	-5.3574056871e-01
0.96935613        	-5.3589938880e-01
0.97263645        	-5.3606756072e-01
0.97593327        	-5.3624007515e-01
0.97923008        	-5.3641207389e-01
0.98252689        	-5.3658017899e-01
0.98580372        	-5.3674105632e-01
0.98906724        	-5.3689390245e-01
0.99232742        	-5.3703825725e-01
0.99552433        	-5.3717096001e-01
0.99872124        	-5.3729369007e-01
1.001894          	-5.3740390609e-01
1.0050249         	-5.3749955936e-01
1.008121          	-5.3757936080e-01
1.0111796         	-5.3764208046e-01
1.014199          	-5.3768665158e-01
1.0171783         	-5.3771261449e-01
1.0201168         	-5.3772008531e-01
1.0230154         	-5.3770954199e-01
1.0258755         	-5.3768170979e-01
1.0286986         	-5.3763791427e-01
1.0314877         	-5.3757931745e-01
1.0342451         	-5.3750731248e-01
1.0369734         	-5.3742337523e-01
1.0396759         	-5.3732911096e-01
1.0423559         	-5.3722604563e-01
1.0450174         	-5.3711598596e-01
1.0476636         	-5.3700044094e-01
1.0502978         	-5.3688142425e-01
1.0529243         	-5.3676005018e-01
1.0555469         	-5.3663780252e-01
1.0581695         	-5.3651579200e-01
1.0607921         	-5.3639503824e-01
1.0634147         	-5.3627633615e-01
1.0660463         	-5.3616013310e-01
1.0686827         	-5.3604722138e-01
1.0713273         	-5.3593823874e-01
1.0739822         	-5.3583396306e-01
1.0766507         	-5.3573525722e-01
1.0793331         	-5.3564319852e-01
1.0820331         	-5.3555897017e-01
1.0847527         	-5.3548390056e-01
1.0874958         	-5.3541939410e-01
1.0902641         	-5.3536703114e-01
1.0930512         	-5.3532816178e-01
1.0958875         	-5.3530419958e-01
1.0987237         	-5.3529639358e-01
1.1015991         	-5.3530540827e-01
1.1045362         	-5.3533212335e-01
1.1075125         	-5.3537635724e-01
1.1105283         	-5.3543829389e-01
1.1135833         	-5.3551729747e-01
1.1166756         	-5.3561228274e-01
1.1198019         	-5.3572167408e-01
1.1229579         	-5.3584335103e-01
1.126138          	-5.3597446661e-01
1.1293342         	-5.3611177964e-01
1.132539          	-5.3625195455e-01
1.1357492         	-5.3639234003e-01
1.1389537         	-5.3653049872e-01
1.1421523         	-5.3666486174e-01
1.1453398         	-5.3679416197e-01
1.148513          	-5.3691720118e-01
1.1516691         	-5.3703274627e-01
1.1548052         	-5.3713939670e-01
1.1579181         	-5.3723565183e-01
1.1610035         	-5.3732003278e-01
1.1640611         	-5.3739126308e-01
1.1670878         	-5.3744821798e-01
1.1700814         	-5.3749007260e-01
1.1730409         	-5.3751641799e-01
1.1759666         	-5.3752696050e-01
1.1788572         	-5.3752206080e-01
1.1817145         	-5.3750218647e-01
1.1845388         	-5.3746820573e-01
1.1873335         	-5.3742114694e-01
1.1900989         	-5.3736221619e-01
1.1928492         	-5.3729247468e-01
1.1955607         	-5.3721403089e-01
1.1982512         	-5.3712799952e-01
