# Region type :   patch outlet
# Faces           : 387
# Area            : 8.2961616953e-02
# Scale factor    : 1.0000000000e+00
# Time            	areaAverage(p_rgh)
0.0020502426      	6.9000000000e+06
0.0077284894      	6.9000000000e+06
0.013399503       	6.9000000000e+06
0.018699284       	6.9000000000e+06
0.024384649       	6.9000000000e+06
0.030070014       	6.9000000000e+06
0.035755378       	6.9000000000e+06
0.041440743       	6.9000000000e+06
0.047126108       	6.9000000000e+06
0.052811473       	6.9000000000e+06
0.058496837       	6.9000000000e+06
0.064182202       	6.9000000000e+06
0.069867567       	6.9000000000e+06
0.075552932       	6.9000000000e+06
0.081238296       	6.9000000000e+06
0.086923661       	6.9000000000e+06
0.092609026       	6.9000000000e+06
0.098114853       	6.9000000000e+06
0.10369318        	6.9000000000e+06
0.109375          	6.9000000000e+06
0.11505682        	6.9000000000e+06
0.12073864        	6.9000000000e+06
0.12642045        	6.9000000000e+06
0.13210227        	6.9000000000e+06
0.13778409        	6.9000000000e+06
0.14346591        	6.9000000000e+06
0.14914773        	6.9000000000e+06
0.15482955        	6.9000000000e+06
0.16051136        	6.9000000000e+06
0.16619318        	6.9000000000e+06
0.171875          	6.9000000000e+06
0.17755682        	6.9000000000e+06
0.18323864        	6.9000000000e+06
0.18892045        	6.9000000000e+06
0.19460227        	6.9000000000e+06
0.20028409        	6.9000000000e+06
0.20596591        	6.9000000000e+06
0.21164773        	6.9000000000e+06
0.21732955        	6.9000000000e+06
0.22301136        	6.9000000000e+06
0.22869318        	6.9000000000e+06
0.234375          	6.9000000000e+06
0.24005682        	6.9000000000e+06
0.24573864        	6.9000000000e+06
0.25142045        	6.9000000000e+06
0.25710227        	6.9000000000e+06
0.26278409        	6.9000000000e+06
0.26846591        	6.9000000000e+06
0.27414773        	6.9000000000e+06
0.27982955        	6.9000000000e+06
0.28551136        	6.9000000000e+06
0.29119318        	6.9000000000e+06
0.296875          	6.9000000000e+06
0.30255682        	6.9000000000e+06
0.30823864        	6.9000000000e+06
0.31392045        	6.9000000000e+06
0.31960227        	6.9000000000e+06
0.32528409        	6.9000000000e+06
0.33096591        	6.9000000000e+06
0.33664773        	6.9000000000e+06
0.34232955        	6.9000000000e+06
0.34801136        	6.9000000000e+06
0.35369318        	6.9000000000e+06
0.359375          	6.9000000000e+06
0.36505682        	6.9000000000e+06
0.37073864        	6.9000000000e+06
0.37642045        	6.9000000000e+06
0.38210227        	6.9000000000e+06
0.38778409        	6.9000000000e+06
0.39346591        	6.9000000000e+06
0.39914773        	6.9000000000e+06
0.40482955        	6.9000000000e+06
0.41051136        	6.9000000000e+06
0.41619318        	6.9000000000e+06
0.421875          	6.9000000000e+06
0.42755682        	6.9000000000e+06
0.43323864        	6.9000000000e+06
0.43892045        	6.9000000000e+06
0.44460227        	6.9000000000e+06
0.45028409        	6.9000000000e+06
0.45596591        	6.9000000000e+06
0.46164773        	6.9000000000e+06
0.46732955        	6.9000000000e+06
0.47301136        	6.9000000000e+06
0.47869318        	6.9000000000e+06
0.484375          	6.9000000000e+06
0.49005682        	6.9000000000e+06
0.49573864        	6.9000000000e+06
0.50142045        	6.9000000000e+06
0.50710227        	6.9000000000e+06
0.51278409        	6.9000000000e+06
0.51846591        	6.9000000000e+06
0.52414773        	6.9000000000e+06
0.52982955        	6.9000000000e+06
0.53551136        	6.9000000000e+06
0.54119318        	6.9000000000e+06
0.546875          	6.9000000000e+06
0.55255682        	6.9000000000e+06
0.55823864        	6.9000000001e+06
0.56392045        	6.9000000004e+06
0.56960227        	6.9000000008e+06
0.57528409        	6.9000000017e+06
0.58096591        	6.9000000035e+06
0.58664773        	6.9000000065e+06
0.59232955        	6.9000000112e+06
0.59801136        	6.9000000183e+06
0.60369318        	6.9000000276e+06
0.609375          	6.9000000389e+06
0.61505682        	6.9000000518e+06
0.62073864        	6.9000000658e+06
0.62642045        	6.9000000807e+06
0.63210227        	6.9000000968e+06
0.63778409        	6.9000001143e+06
0.64346591        	6.9000001335e+06
0.64914773        	6.9000001547e+06
0.65482955        	6.9000001781e+06
0.66051136        	6.9000002041e+06
0.66619318        	6.9000002333e+06
0.671875          	6.9000002666e+06
0.67755682        	6.9000003057e+06
0.68323864        	6.9000003517e+06
0.68892045        	6.9000004050e+06
0.69460227        	6.9000004641e+06
0.70028409        	6.9000005260e+06
0.70596591        	6.9000005860e+06
0.71164773        	6.9000006400e+06
0.71732955        	6.9000006844e+06
0.72301136        	6.9000007189e+06
0.72869318        	6.9000007459e+06
0.734375          	6.9000007691e+06
0.74005682        	6.9000007920e+06
0.74573864        	6.9000008175e+06
0.75142045        	6.9000008471e+06
0.75710227        	6.9000008804e+06
0.76278409        	6.9000009160e+06
0.76846591        	6.9000009520e+06
0.77414773        	6.9000009868e+06
0.77982955        	6.9000010196e+06
0.78551136        	6.9000010509e+06
0.79119318        	6.9000010814e+06
0.796875          	6.9000011125e+06
0.80255682        	6.9000011453e+06
0.80823864        	6.9000011808e+06
0.81392045        	6.9000012202e+06
0.81960227        	6.9000012649e+06
0.82528409        	6.9000013171e+06
0.83096591        	6.9000013799e+06
0.83664773        	6.9000014575e+06
0.84232955        	6.9000015539e+06
0.84801136        	6.9000016712e+06
0.85369318        	6.9000018082e+06
0.859375          	6.9000019593e+06
0.86505682        	6.9000021141e+06
0.87073864        	6.9000022582e+06
0.87642045        	6.9000023749e+06
0.88210227        	6.9000024530e+06
0.88778409        	6.9000024882e+06
0.89346591        	6.9000024808e+06
0.89914773        	6.9000024366e+06
0.90482955        	6.9000023651e+06
0.91051136        	6.9000022778e+06
0.91619318        	6.9000021858e+06
0.921875          	6.9000020978e+06
0.92755682        	6.9000020191e+06
0.93323864        	6.9000019518e+06
0.93892045        	6.9000018955e+06
0.94460227        	6.9000018490e+06
0.95028409        	6.9000018108e+06
0.95596591        	6.9000017798e+06
0.96164773        	6.9000017553e+06
0.96732955        	6.9000017375e+06
0.97301136        	6.9000017267e+06
0.97869318        	6.9000017238e+06
0.984375          	6.9000017303e+06
0.99005682        	6.9000017486e+06
0.99573864        	6.9000017819e+06
1.0014205         	6.9000018337e+06
1.0071023         	6.9000019065e+06
1.0127841         	6.9000019999e+06
1.0184659         	6.9000021099e+06
1.0241477         	6.9000022279e+06
1.0298295         	6.9000023412e+06
1.0355114         	6.9000024353e+06
1.0411932         	6.9000024993e+06
1.046875          	6.9000025278e+06
1.0525568         	6.9000025197e+06
1.0582386         	6.9000024790e+06
1.0639205         	6.9000024135e+06
1.0696023         	6.9000023329e+06
1.0752841         	6.9000022469e+06
1.0809659         	6.9000021631e+06
1.0866477         	6.9000020867e+06
1.0923295         	6.9000020196e+06
1.0980114         	6.9000019623e+06
1.1036932         	6.9000019140e+06
1.109375          	6.9000018737e+06
1.1150568         	6.9000018404e+06
1.1207386         	6.9000018138e+06
1.1264205         	6.9000017938e+06
1.1321023         	6.9000017809e+06
1.1377841         	6.9000017759e+06
1.1434659         	6.9000017804e+06
1.1491477         	6.9000017965e+06
1.1548295         	6.9000018270e+06
1.1605114         	6.9000018745e+06
1.1661932         	6.9000019404e+06
1.171875          	6.9000020241e+06
1.1775568         	6.9000021214e+06
1.1832386         	6.9000022248e+06
1.1889205         	6.9000023236e+06
1.1946023         	6.9000024061e+06
