# Region type :   patch branch_inlet
# Faces           : 281
# Area            : 1.2977003709e-02
# Scale factor    : 1.0000000000e+00
# Time            	sum(phi)
0.0022358089      	-6.3536897562e-01
0.011040624       	-6.3521133440e-01
0.019000616       	-6.4013648527e-01
0.025116136       	-6.3993748981e-01
0.030887987       	-6.4359167243e-01
0.035848343       	-6.4470273852e-01
0.040686689       	-6.4477360012e-01
0.045126316       	-6.4600771387e-01
0.04921605        	-6.4661249556e-01
0.053244807       	-6.4701677997e-01
0.057220129       	-6.4813696204e-01
0.061057797       	-6.4904450341e-01
0.064775819       	-6.4927593123e-01
0.068367964       	-6.4948384449e-01
0.071769306       	-6.4991110281e-01
0.074994451       	-6.5018347635e-01
0.078128824       	-6.5024076267e-01
0.081227396       	-6.5032376497e-01
0.08429508        	-6.5051021066e-01
0.087322797       	-6.5063133253e-01
0.090301282       	-6.5064074094e-01
0.093240287       	-6.5068051142e-01
0.096116761       	-6.5080860215e-01
0.098993234       	-6.5090694527e-01
0.10181348        	-6.5086876409e-01
0.10459574        	-6.5074104741e-01
0.10737555        	-6.5061762311e-01
0.11015016        	-6.5051953525e-01
0.11291708        	-6.5042289346e-01
0.11568162        	-6.5035676483e-01
0.11845003        	-6.5036916500e-01
0.12122339        	-6.5043183140e-01
0.12400115        	-6.5045678810e-01
0.12678325        	-6.5040704351e-01
0.12956716        	-6.5032220467e-01
0.13235107        	-6.5023815530e-01
0.13512953        	-6.5015208107e-01
0.13791164        	-6.5007604668e-01
0.14070412        	-6.5005042930e-01
0.14351587        	-6.5007938171e-01
0.14635674        	-6.5011516869e-01
0.14924013        	-6.5012877617e-01
0.15217484        	-6.5014480225e-01
0.15515932        	-6.5019115445e-01
0.15818341        	-6.5027672876e-01
0.16123605        	-6.5041935360e-01
0.16430853        	-6.5061239578e-01
0.16740505        	-6.5079428657e-01
0.17053304        	-6.5092464854e-01
0.17369978        	-6.5103371838e-01
0.17690511        	-6.5117174512e-01
0.18014626        	-6.5138268581e-01
0.18340097        	-6.5168772623e-01
0.18665568        	-6.5203108481e-01
0.18991039        	-6.5232653366e-01
0.19316511        	-6.5253969007e-01
0.19641982        	-6.5269302078e-01
0.19967453        	-6.5284777917e-01
0.20286365        	-6.5305326182e-01
0.20603515        	-6.5329562074e-01
0.20919998        	-6.5352552167e-01
0.2123535         	-6.5370857407e-01
0.21548753        	-6.5384310703e-01
0.21859532        	-6.5396384254e-01
0.22167225        	-6.5410079136e-01
0.22471568        	-6.5424524073e-01
0.22771992        	-6.5436633430e-01
0.23067892        	-6.5443406841e-01
0.23358885        	-6.5444181867e-01
0.23645331        	-6.5441274289e-01
0.23928182        	-6.5437376538e-01
0.24208426        	-6.5433887417e-01
0.24486889        	-6.5430659085e-01
0.24763777        	-6.5426279244e-01
0.25038665        	-6.5419628960e-01
0.25311209        	-6.5410736495e-01
0.2558128         	-6.5400060479e-01
0.25849185        	-6.5388150868e-01
0.26115549        	-6.5375263019e-01
0.26380915        	-6.5361364126e-01
0.26646049        	-6.5346809144e-01
0.26911408        	-6.5332371264e-01
0.27177666        	-6.5318591135e-01
0.27444395        	-6.5305465369e-01
0.27711997        	-6.5292249203e-01
0.279796          	-6.5278267927e-01
0.28248247        	-6.5263774114e-01
0.28517747        	-6.5249345268e-01
0.28787248        	-6.5235297350e-01
0.29056748        	-6.5221313252e-01
0.29326249        	-6.5206915693e-01
0.29595749        	-6.5192630460e-01
0.2986525         	-6.5179273887e-01
0.30137006        	-6.5167070453e-01
0.3041221         	-6.5155751052e-01
0.30689264        	-6.5145361767e-01
0.3096829         	-6.5136836623e-01
0.31249225        	-6.5130408913e-01
0.31531605        	-6.5125301537e-01
0.31814356        	-6.5120608337e-01
0.32096101        	-6.5116144903e-01
0.32375425        	-6.5111547541e-01
0.32650808        	-6.5105998843e-01
0.32920874        	-6.5099315345e-01
0.3318423         	-6.5091964711e-01
0.33439496        	-6.5083979176e-01
0.33685248        	-6.5074592264e-01
0.33920321        	-6.5062855005e-01
0.34144124        	-6.5047834111e-01
0.34356794        	-6.5028492637e-01
0.34559058        	-6.5004291077e-01
0.34752065        	-6.4975507515e-01
0.34937175        	-6.4943187143e-01
0.35115865        	-6.4908255280e-01
0.35289506        	-6.4871457495e-01
0.354593          	-6.4833396033e-01
0.35626334        	-6.4794496633e-01
0.35791463        	-6.4755161964e-01
0.3595547         	-6.4715793309e-01
0.36118949        	-6.4676721471e-01
0.36282572        	-6.4638082850e-01
0.36446794        	-6.4599940955e-01
0.36612012        	-6.4562388752e-01
0.36778613        	-6.4525532650e-01
0.36946806        	-6.4489509421e-01
0.37116898        	-6.4454398823e-01
0.37289099        	-6.4420211175e-01
0.37463376        	-6.4386901291e-01
0.37639864        	-6.4354331945e-01
0.37818353        	-6.4322398335e-01
0.37998719        	-6.4290958299e-01
0.38180681        	-6.4259820201e-01
0.38363967        	-6.4228699520e-01
0.38548075        	-6.4197342836e-01
0.38733033        	-6.4165458094e-01
0.38917992        	-6.4132999801e-01
0.39102951        	-6.4099890095e-01
0.39287909        	-6.4066142831e-01
0.39472868        	-6.4031873414e-01
0.39657826        	-6.3997258720e-01
0.39842785        	-6.3962531404e-01
0.40028151        	-6.3927914504e-01
0.40216347        	-6.3893104444e-01
0.40405424        	-6.3858508469e-01
0.40595278        	-6.3824141863e-01
0.40785716        	-6.3789876076e-01
0.40976469        	-6.3755465444e-01
0.41167241        	-6.3720819400e-01
0.41357961        	-6.3685800687e-01
0.41548524        	-6.3650364893e-01
0.41739087        	-6.3614712591e-01
0.41929982        	-6.3579081341e-01
0.42121582        	-6.3543789369e-01
0.42314428        	-6.3509246794e-01
0.42509022        	-6.3475739430e-01
0.42705856        	-6.3443653257e-01
0.42905385        	-6.3413269847e-01
0.43107904        	-6.3384721361e-01
0.43313643        	-6.3358062247e-01
0.43522614        	-6.3333228224e-01
0.43734766        	-6.3310150509e-01
0.43950069        	-6.3288758736e-01
0.4416844         	-6.3268981734e-01
0.44389901        	-6.3250833163e-01
0.44614396        	-6.3234322498e-01
0.44842071        	-6.3219538838e-01
0.45073141        	-6.3206625662e-01
0.45308042        	-6.3195722488e-01
0.45547139        	-6.3187247171e-01
0.45791192        	-6.3181674635e-01
0.46041123        	-6.3179608821e-01
0.46298042        	-6.3181842810e-01
0.46563213        	-6.3189220619e-01
0.46837708        	-6.3202540699e-01
0.47122205        	-6.3222194543e-01
0.47416654        	-6.3248000773e-01
0.47719944        	-6.3278952485e-01
0.48030294        	-6.3313579145e-01
0.48346118        	-6.3350779084e-01
0.48666989        	-6.3390473076e-01
0.48993998        	-6.3433589033e-01
0.49327641        	-6.3481079375e-01
0.4966382         	-6.3532023152e-01
0.5               	-6.3584003678e-01
0.50339592        	-6.3634587671e-01
0.50671391        	-6.3679493922e-01
0.50992979        	-6.3717404104e-01
0.51304341        	-6.3748942017e-01
0.51606927        	-6.3775408354e-01
0.51902223        	-6.3797873159e-01
0.52191457        	-6.3817149358e-01
0.52475459        	-6.3833760957e-01
0.52754562        	-6.3847952061e-01
0.53028753        	-6.3859647350e-01
0.53297782        	-6.3868675099e-01
0.53561181        	-6.3874597151e-01
0.53818576        	-6.3877144262e-01
0.54069773        	-6.3876137951e-01
0.54314769        	-6.3871584343e-01
0.54553816        	-6.3863658093e-01
0.5478753         	-6.3852714326e-01
0.55016347        	-6.3839171882e-01
0.5524099         	-6.3823417514e-01
0.55461984        	-6.3805845563e-01
0.55679903        	-6.3786795516e-01
0.5589519         	-6.3766532737e-01
0.56108134        	-6.3745243318e-01
0.56318945        	-6.3723035916e-01
0.56527781        	-6.3699978230e-01
0.56734751        	-6.3676099690e-01
0.56940032        	-6.3651432419e-01
0.57143712        	-6.3626046696e-01
0.5734595         	-6.3600059820e-01
0.57547195        	-6.3573602070e-01
0.57747655        	-6.3546991684e-01
0.57947864        	-6.3520430635e-01
0.58148072        	-6.3494149438e-01
0.58348963        	-6.3468411831e-01
0.58550649        	-6.3443448739e-01
0.58753519        	-6.3419418890e-01
0.5895786         	-6.3396451791e-01
0.59164059        	-6.3374590268e-01
0.59371678        	-6.3353905450e-01
0.59581119        	-6.3334327938e-01
0.59790559        	-6.3316004871e-01
0.6               	-6.3298876055e-01
0.60214877        	-6.3282510614e-01
0.60431659        	-6.3267244718e-01
0.60650499        	-6.3253137342e-01
0.60871631        	-6.3240392549e-01
0.61095408        	-6.3229287272e-01
0.61322309        	-6.3220007374e-01
0.61552862        	-6.3212999437e-01
0.61787663        	-6.3208652294e-01
0.62027369        	-6.3207430567e-01
0.6227259         	-6.3209728338e-01
0.62523832        	-6.3215868168e-01
0.62781392        	-6.3226013095e-01
0.63045329        	-6.3240100896e-01
0.63315412        	-6.3257898435e-01
0.63591369        	-6.3279065080e-01
0.63872837        	-6.3303303797e-01
0.64159672        	-6.3330493143e-01
0.64451961        	-6.3360736463e-01
0.64749619        	-6.3394160531e-01
0.6505246         	-6.3430597222e-01
0.6535937         	-6.3469448022e-01
0.65668451        	-6.3509210107e-01
0.65977109        	-6.3548161010e-01
0.66282875        	-6.3584761813e-01
0.66584409        	-6.3618163121e-01
0.66881028        	-6.3648173747e-01
0.67172728        	-6.3675027971e-01
0.67459984        	-6.3699113897e-01
0.67743245        	-6.3720751987e-01
0.68022483        	-6.3740100260e-01
0.68297932        	-6.3757194294e-01
0.68569307        	-6.3771930673e-01
0.68836712        	-6.3784127389e-01
0.6909957         	-6.3793617250e-01
0.69357872        	-6.3800215698e-01
0.69611139        	-6.3803786088e-01
0.69862017        	-6.3804328418e-01
0.70109075        	-6.3801842557e-01
0.70348192        	-6.3796571660e-01
0.70583119        	-6.3788746290e-01
0.70814198        	-6.3778659285e-01
0.71041799        	-6.3766522263e-01
0.71266264        	-6.3752617546e-01
0.71487923        	-6.3737150090e-01
0.71707045        	-6.3720311095e-01
0.71923832        	-6.3702234020e-01
0.72138502        	-6.3683032746e-01
0.72351241        	-6.3662824882e-01
0.72562264        	-6.3641716553e-01
0.72771787        	-6.3619855189e-01
0.72980043        	-6.3597377370e-01
0.73187363        	-6.3574500988e-01
0.73394039        	-6.3551414842e-01
0.73600475        	-6.3528275302e-01
0.73806912        	-6.3505328544e-01
0.74013591        	-6.3482714651e-01
0.7422088         	-6.3460594765e-01
0.74428918        	-6.3439067878e-01
0.74637931        	-6.3418205647e-01
0.74848031        	-6.3398111232e-01
0.75059339        	-6.3378799596e-01
0.75271942        	-6.3360330082e-01
0.75485916        	-6.3342703892e-01
0.75701372        	-6.3325954735e-01
0.75918434        	-6.3310177714e-01
0.76137243        	-6.3295451689e-01
0.76358024        	-6.3281921986e-01
0.7658104         	-6.3269750571e-01
0.768066          	-6.3259187191e-01
0.77035107        	-6.3250432886e-01
0.77266927        	-6.3243807197e-01
0.77502496        	-6.3239620731e-01
0.77742198        	-6.3238106624e-01
0.77986376        	-6.3239513278e-01
0.78235383        	-6.3243978971e-01
0.78489412        	-6.3251604610e-01
0.78748346        	-6.3262332712e-01
0.79012193        	-6.3276100799e-01
0.79281105        	-6.3292816521e-01
0.79553893        	-6.3312314478e-01
0.7983271         	-6.3334691075e-01
0.80113618        	-6.3359534087e-01
0.80400493        	-6.3387032971e-01
0.80690878        	-6.3416551350e-01
0.80983813        	-6.3447543905e-01
0.81277909        	-6.3479045607e-01
0.81571901        	-6.3510171552e-01
0.81864456        	-6.3540133462e-01
0.82154738        	-6.3568437493e-01
0.824422          	-6.3594826709e-01
0.82726606        	-6.3619254599e-01
0.83007876        	-6.3641751691e-01
0.83285957        	-6.3662322021e-01
0.83560765        	-6.3680938254e-01
0.83832156        	-6.3697505274e-01
0.84099982        	-6.3711894499e-01
0.84364028        	-6.3723958038e-01
0.84624205        	-6.3733557139e-01
0.84880259        	-6.3740638112e-01
0.85132124        	-6.3745062363e-01
0.85379918        	-6.3746892977e-01
0.85623659        	-6.3746169579e-01
0.8586356         	-6.3743031033e-01
0.86099731        	-6.3737614601e-01
0.86332555        	-6.3730127954e-01
0.86562245        	-6.3720769810e-01
0.86789057        	-6.3709723119e-01
0.87013298        	-6.3697158883e-01
0.87235209        	-6.3683222828e-01
0.8745483         	-6.3668077206e-01
0.87672573        	-6.3651830867e-01
0.87888553        	-6.3634631062e-01
0.88103114        	-6.3616599102e-01
0.88316247        	-6.3597908273e-01
0.88528219        	-6.3578716069e-01
0.88739986        	-6.3559143865e-01
0.88951346        	-6.3539373453e-01
0.89161077        	-6.3519689413e-01
0.89370807        	-6.3500138421e-01
0.89580538        	-6.3480851595e-01
0.89790269        	-6.3461906782e-01
0.9               	-6.3443426737e-01
0.90212509        	-6.3425254754e-01
0.90425864        	-6.3407644423e-01
0.90640198        	-6.3390643044e-01
0.90855631        	-6.3374312924e-01
0.91072264        	-6.3358752853e-01
0.91290273        	-6.3344036824e-01
0.91509822        	-6.3330263546e-01
0.91731102        	-6.3317561821e-01
0.9195434         	-6.3306078882e-01
0.92179753        	-6.3295989265e-01
0.92407597        	-6.3287472043e-01
0.92638176        	-6.3280682643e-01
0.92871776        	-6.3275866071e-01
0.93108637        	-6.3273196924e-01
0.93349073        	-6.3272835449e-01
0.93593284        	-6.3274915300e-01
0.93841444        	-6.3279527905e-01
0.94093618        	-6.3286712502e-01
0.9434984         	-6.3296440211e-01
0.94610131        	-6.3308674665e-01
0.94874345        	-6.3323330018e-01
0.95142389        	-6.3340315877e-01
0.95414066        	-6.3359503077e-01
0.95689159        	-6.3380711381e-01
0.95967129        	-6.3403635294e-01
0.9624736         	-6.3427839032e-01
0.96529111        	-6.3452874087e-01
0.96811297        	-6.3478103202e-01
0.97093483        	-6.3503077919e-01
0.97374885        	-6.3527361477e-01
0.97654932        	-6.3550672352e-01
0.97933229        	-6.3572795341e-01
0.98209476        	-6.3593616144e-01
0.98483497        	-6.3613035917e-01
0.98755049        	-6.3630957582e-01
0.99023919        	-6.3647268595e-01
0.99290635        	-6.3661885960e-01
0.99553363        	-6.3674594050e-01
0.9981609         	-6.3685451238e-01
1.0007666         	-6.3694199876e-01
1.0032996         	-6.3700674665e-01
1.0057982         	-6.3704956762e-01
1.0082625         	-6.3707044987e-01
1.0106925         	-6.3706984184e-01
1.0130899         	-6.3704872111e-01
1.0154562         	-6.3700823426e-01
1.0177931         	-6.3694953564e-01
1.0201024         	-6.3687420015e-01
1.0223864         	-6.3678353101e-01
1.0246464         	-6.3667900244e-01
1.026885          	-6.3656190849e-01
1.0291041         	-6.3643364840e-01
1.0313054         	-6.3629551431e-01
1.0334913         	-6.3614892432e-01
1.0356635         	-6.3599536077e-01
1.0378249         	-6.3583615561e-01
1.0399776         	-6.3567277731e-01
1.0421235         	-6.3550639409e-01
1.0442653         	-6.3533866985e-01
1.0464048         	-6.3517075877e-01
1.0485443         	-6.3500315440e-01
1.0506839         	-6.3483729782e-01
1.0528271         	-6.3467375954e-01
1.0549741         	-6.3451340677e-01
1.0571265         	-6.3435673622e-01
1.059285          	-6.3420453817e-01
1.0614525         	-6.3405753144e-01
1.0636283         	-6.3391634021e-01
1.0658155         	-6.3378190031e-01
1.068014          	-6.3365505248e-01
1.0702258         	-6.3353693908e-01
1.072453          	-6.3342863878e-01
1.0746973         	-6.3333147213e-01
1.0769613         	-6.3324684793e-01
1.0792467         	-6.3317623679e-01
1.0815551         	-6.3312092627e-01
1.0838891         	-6.3308264055e-01
1.0862504         	-6.3306271068e-01
1.0886393         	-6.3306202264e-01
1.0910613         	-6.3308149268e-01
1.0935102         	-6.3312156826e-01
1.0960033         	-6.3318280226e-01
1.0985012         	-6.3326377970e-01
1.1010237         	-6.3336440780e-01
1.1036054         	-6.3348588115e-01
1.1062172         	-6.3362565857e-01
1.108857          	-6.3378252155e-01
1.111522          	-6.3395498705e-01
1.1142079         	-6.3413970804e-01
1.1169099         	-6.3433388308e-01
1.1196231         	-6.3453381450e-01
1.1223422         	-6.3473629101e-01
1.1250623         	-6.3493798254e-01
1.1277771         	-6.3513624146e-01
1.1304846         	-6.3532897910e-01
1.1331808         	-6.3551451727e-01
1.1358639         	-6.3569144973e-01
1.1385309         	-6.3585852793e-01
1.14118           	-6.3601449494e-01
1.1438096         	-6.3615815375e-01
1.1464178         	-6.3628830003e-01
1.1490027         	-6.3640372206e-01
1.1515629         	-6.3650335314e-01
1.154097          	-6.3658615646e-01
1.1566045         	-6.3665136102e-01
1.159084          	-6.3669873511e-01
1.1615353         	-6.3672785148e-01
1.1639583         	-6.3673874395e-01
1.1663545         	-6.3673207775e-01
1.1687232         	-6.3670843838e-01
1.1710662         	-6.3666871761e-01
1.1733852         	-6.3661388185e-01
1.1756813         	-6.3654512865e-01
1.177957          	-6.3646350008e-01
1.1802123         	-6.3637026371e-01
1.1824511         	-6.3626649597e-01
1.1846737         	-6.3615356815e-01
1.1868803         	-6.3603279548e-01
1.1890772         	-6.3590520151e-01
1.1912617         	-6.3577229154e-01
1.1934463         	-6.3563461933e-01
1.1956309         	-6.3549345362e-01
1.1978154         	-6.3534961940e-01
1.2               	-6.3520487299e-01
