# Region type :   patch outlet
# Faces           : 398
# Area            : 8.2960538044e-02
# Scale factor    : 1.0000000000e+00
# Time            	sum(phi)
0.002180784       	1.9170756008e+01
0.0092011222      	1.9160893611e+01
0.014116593       	1.9154308412e+01
0.016106996       	1.9151604462e+01
0.017797168       	1.9149073967e+01
0.019611627       	1.9145309539e+01
0.02153643        	1.9137703759e+01
0.023452331       	1.9122455241e+01
0.025355407       	1.9099742570e+01
0.027249172       	1.9087507763e+01
0.029125934       	1.9138932573e+01
0.030977194       	1.9381838853e+01
0.032831817       	2.0194394584e+01
0.034900042       	2.3028691916e+01
0.037952975       	3.5724145154e+01
0.042511053       	6.2721206752e+01
0.048136195       	6.5056775805e+01
0.054710008       	6.4631236901e+01
0.05863084        	6.4690611488e+01
0.06175707        	6.4673606316e+01
0.064371899       	6.6268841288e+01
0.066654319       	6.9913209043e+01
0.068845588       	7.4056673791e+01
0.07106217        	7.6392859879e+01
0.073294982       	7.6161482503e+01
0.075638037       	7.5015636354e+01
0.078331984       	7.5199852040e+01
0.0816099         	7.7287915513e+01
0.085437642       	7.7566008509e+01
0.089152882       	7.5008679970e+01
0.092017341       	7.2793665797e+01
0.094336639       	7.1398387705e+01
0.096348383       	7.0514684840e+01
0.098270287       	6.9719186139e+01
0.1001996         	6.8652007212e+01
0.10232422        	6.7204564117e+01
0.10483088        	6.6035489782e+01
0.10794708        	6.6365009018e+01
0.11127445        	6.7324869484e+01
0.11418609        	6.7099038381e+01
0.11677414        	6.4972349013e+01
0.11931112        	6.0089893709e+01
0.12200822        	5.2377737864e+01
0.12489883        	4.3448885901e+01
0.12776612        	3.5892507238e+01
0.13041909        	3.0762592262e+01
0.13288369        	2.7674880153e+01
0.13527638        	2.6287426635e+01
0.13771947        	2.6513832047e+01
0.1403372         	2.7997491375e+01
0.143234          	2.9395188381e+01
0.14639751        	2.8484865896e+01
0.14963853        	2.5149339862e+01
0.1527877         	2.1792403423e+01
0.15581763        	1.9702111664e+01
0.15872002        	1.8544519156e+01
0.16145639        	1.7886400937e+01
0.16400419        	1.7841949848e+01
0.1664079         	1.8467051040e+01
0.16875161        	1.9424342014e+01
0.17115647        	2.0280219544e+01
0.17380967        	2.1001515703e+01
0.17703588        	2.2345415261e+01
0.18111185        	2.5289426428e+01
0.18498922        	2.7908597739e+01
0.18809766        	2.8860020870e+01
0.19072521        	2.9135598623e+01
0.19317644        	2.9722450336e+01
0.19565145        	3.1412208027e+01
0.19827081        	3.4944418666e+01
0.20101456        	4.0537952489e+01
0.20399936        	4.7977672195e+01
0.20698866        	5.5655128264e+01
0.20990416        	6.2216006592e+01
0.21277836        	6.6803316895e+01
0.21565342        	6.9001385524e+01
0.21857993        	6.9025102366e+01
0.22150768        	6.7929837305e+01
0.22432208        	6.7187707086e+01
0.226963          	6.7659938040e+01
0.22945743        	6.9269895356e+01
0.23187248        	7.1492558170e+01
0.2342787         	7.3939408863e+01
0.23673668        	7.6359250857e+01
0.2392861         	7.8315236864e+01
0.24194042        	7.9267594314e+01
0.24468375        	7.9181894652e+01
0.24748491        	7.8637915308e+01
0.25029337        	7.8053247251e+01
0.25304779        	7.7280038024e+01
0.25569416        	7.6020916145e+01
0.25815263        	7.4323864460e+01
0.26046822        	7.2470209395e+01
0.26272969        	7.0733747542e+01
0.26502713        	6.9281971013e+01
0.26745081        	6.8094387973e+01
0.27008895        	6.6864324179e+01
0.27298337        	6.4945115719e+01
0.27605334        	6.1573271487e+01
0.27909275        	5.6615126780e+01
0.28195931        	5.0841145709e+01
0.28466548        	4.5049168819e+01
0.28729269        	3.9670657968e+01
0.28991275        	3.5025623486e+01
0.2925455         	3.1576077028e+01
0.29520782        	2.9636283420e+01
0.29787014        	2.9063570158e+01
0.30053602        	2.9211068794e+01
0.30325811        	2.9213509671e+01
0.30609303        	2.8320973343e+01
0.30907161        	2.6229743195e+01
0.31213146        	2.3331625925e+01
0.3151235         	2.0487929270e+01
0.31794332        	1.8339056395e+01
0.32059359        	1.7076229804e+01
0.32314481        	1.6562606784e+01
0.32568849        	1.6586648058e+01
0.32832323        	1.7089795414e+01
0.33114801        	1.8184441676e+01
0.33423372        	1.9977900348e+01
0.33755317        	2.2348870867e+01
0.3409177         	2.4918243940e+01
0.34411193        	2.7391554204e+01
0.34706179        	2.9770450047e+01
0.3498137         	3.2289934358e+01
0.35244767        	3.5329260657e+01
0.35504118        	3.9133823816e+01
0.35766455        	4.3711995049e+01
0.36037689        	4.8961734167e+01
0.36321321        	5.4539062118e+01
0.36617083        	5.9621856978e+01
0.3691921         	6.3313118744e+01
0.37215095        	6.5308997173e+01
0.37500879        	6.6106446263e+01
0.37777267        	6.6504985874e+01
0.38045256        	6.7284991039e+01
0.3830637         	6.8818866920e+01
0.38562107        	7.0959664855e+01
0.38814369        	7.3379633820e+01
0.39066631        	7.5796387604e+01
0.39320723        	7.7980136759e+01
0.39581145        	7.9800332986e+01
0.39851374        	8.1030801255e+01
0.40126704        	8.1384879808e+01
0.40409278        	8.0751497594e+01
0.40686868        	7.9253528665e+01
0.40951216        	7.7245351853e+01
0.41200095        	7.5093594859e+01
0.41440024        	7.2985753546e+01
0.41678341        	7.0934214998e+01
0.41921944        	6.8832096481e+01
0.42176536        	6.6562711064e+01
0.42445136        	6.3917481089e+01
0.42726265        	6.0654840281e+01
0.43014447        	5.6634839965e+01
0.43302911        	5.1922853028e+01
0.43586441        	4.6806794400e+01
0.43862255        	4.1765119458e+01
0.44130065        	3.7292258720e+01
0.44391094        	3.3729502410e+01
0.44648042        	3.1177183542e+01
0.44904403        	2.9501449679e+01
0.45164141        	2.8382215658e+01
0.45430976        	2.7393266764e+01
0.45707603        	2.6109034496e+01
0.45994172        	2.4265655961e+01
0.46286924        	2.1904364985e+01
0.46578488        	1.9353215721e+01
0.46862803        	1.7019020310e+01
0.47138259        	1.5217011629e+01
0.47407478        	1.4154569364e+01
0.47675339        	1.3954357448e+01
0.47948433        	1.4649754866e+01
0.48232246        	1.6187280761e+01
0.48530304        	1.8438171792e+01
0.48840553        	2.1177618913e+01
0.49153917        	2.4115608368e+01
0.49460492        	2.7028715640e+01
0.49753725        	2.9808645951e+01
0.5004104         	3.2646371240e+01
0.50309876        	3.5590328246e+01
0.50574846        	3.8862302153e+01
0.50841439        	4.2441362335e+01
0.51114486        	4.6132227700e+01
0.51397095        	4.9545541896e+01
0.51689211        	5.2175869592e+01
0.51983008        	5.3737314194e+01
0.52269556        	5.4376782461e+01
0.52547976        	5.4481139856e+01
0.5281834         	5.4505223774e+01
0.53081765        	5.4716085714e+01
0.53339815        	5.5217758594e+01
0.53594617        	5.5963753771e+01
0.53848756        	5.6813586444e+01
0.54105547        	5.7638063419e+01
0.54368027        	5.8324073199e+01
0.54637964        	5.8697746466e+01
0.54914334        	5.8590246907e+01
0.55193001        	5.7955846303e+01
0.55468301        	5.6874779450e+01
0.55734061        	5.5531427633e+01
0.55990677        	5.4092843038e+01
0.56241383        	5.2647259767e+01
0.56490601        	5.1215946400e+01
0.56743052        	4.9784747629e+01
0.5700234         	4.8314106107e+01
0.57270567        	4.6706182372e+01
0.57546952        	4.4800499769e+01
0.57828391        	4.2454430654e+01
0.58110212        	3.9635756262e+01
0.58388311        	3.6485858140e+01
0.58660505        	3.3285021267e+01
0.58926516        	3.0324324658e+01
0.59187939        	2.7784335929e+01
0.59445736        	2.5727745903e+01
0.59703533        	2.4090243158e+01
0.5996133         	2.2750880765e+01
0.60229179        	2.1486730194e+01
0.60506608        	2.0115792037e+01
0.607925          	1.8514876060e+01
0.61083942        	1.6752355309e+01
0.61375878        	1.5058459726e+01
0.6166359         	1.3697502254e+01
0.61945417        	1.2912515024e+01
0.62222933        	1.2872826743e+01
0.62499708        	1.3640184915e+01
0.62779952        	1.5185355283e+01
0.63066784        	1.7400018187e+01
0.63361126        	2.0137277505e+01
0.63660704        	2.3176844594e+01
0.63960272        	2.6227485308e+01
0.6425467         	2.9087887628e+01
0.64541063        	3.1724919831e+01
0.64819751        	3.4220916950e+01
0.6509345         	3.6700183605e+01
0.65365589        	3.9233834539e+01
0.65640062        	4.1785911453e+01
0.65919805        	4.4204671370e+01
0.66206216        	4.6273269274e+01
0.66493041        	4.7792719745e+01
0.66775802        	4.8764715254e+01
0.6705338         	4.9360376309e+01
0.67325068        	4.9806091219e+01
0.67591349        	5.0294593561e+01
0.67853022        	5.0945535934e+01
0.68111905        	5.1774855499e+01
0.68368966        	5.2690728653e+01
0.68628102        	5.3580609327e+01
0.68890552        	5.4336755851e+01
0.69157246        	5.4828244767e+01
0.69429102        	5.4923119126e+01
0.69700958        	5.4535808008e+01
0.69972814        	5.3669331159e+01
0.70242595        	5.2413389873e+01
0.70507224        	5.0900942154e+01
0.70767448        	4.9255307723e+01
0.710253          	4.7567933901e+01
0.71283481        	4.5874473031e+01
0.71544695        	4.4182777186e+01
0.71810535        	4.2469899570e+01
0.72081202        	4.0637116562e+01
0.72355272        	3.8584213750e+01
0.72630211        	3.6266973958e+01
0.72903736        	3.3712290437e+01
0.73174259        	3.1039088577e+01
0.73441393        	2.8404999875e+01
0.73705975        	2.5943530541e+01
0.73969377        	2.3738958437e+01
0.74233341        	2.1818625764e+01
0.74500073        	2.0154930291e+01
0.74771565        	1.8681901032e+01
0.75049492        	1.7310620596e+01
0.75334327        	1.5997650300e+01
0.75624618        	1.4796396028e+01
0.75917286        	1.3826683927e+01
0.76208299        	1.3239154445e+01
0.76495172        	1.3179744092e+01
0.76777777        	1.3745620227e+01
0.77058083        	1.4968055552e+01
0.77338835        	1.6806612319e+01
0.77622695        	1.9185326079e+01
0.77910862        	2.1997582358e+01
0.78202407        	2.5057910786e+01
0.78494699        	2.8140713492e+01
0.78786016        	3.1101411293e+01
0.79073655        	3.3879668520e+01
0.79358381        	3.6517994758e+01
0.79637346        	3.9064299005e+01
0.79916311        	4.1633204295e+01
0.80195807        	4.4224126811e+01
0.80477554        	4.6753700844e+01
0.80760678        	4.9049164648e+01
0.81041263        	5.0917522152e+01
0.81319084        	5.2275080281e+01
0.81593564        	5.3145532130e+01
0.81864308        	5.3634304760e+01
0.82131387        	5.3872915447e+01
0.82395244        	5.3978626778e+01
0.82656882        	5.4013753035e+01
0.82917739        	5.3973209412e+01
0.83178989        	5.3850196447e+01
0.83442215        	5.3629482206e+01
0.83708385        	5.3258721182e+01
0.839778          	5.2661370612e+01
0.84249445        	5.1786822589e+01
0.84521305        	5.0637680703e+01
0.84791774        	4.9250188327e+01
0.8505956         	4.7688802517e+01
0.85324478        	4.6033578583e+01
0.85587245        	4.4344383670e+01
0.8584913         	4.2645108700e+01
0.86111984        	4.0928792669e+01
0.86376636        	3.9172475950e+01
0.86643525        	3.7331527840e+01
0.86912385        	3.5349786295e+01
0.87182046        	3.3188820752e+01
0.87451707        	3.0853477766e+01
0.87720548        	2.8407975015e+01
0.87988719        	2.5948199855e+01
0.8825689         	2.3577473665e+01
0.8852506         	2.1389077277e+01
0.88795054        	1.9430839547e+01
0.89067713        	1.7733311072e+01
0.89344321        	1.6290221255e+01
0.89623333        	1.5105787816e+01
0.89902346        	1.4203312383e+01
0.90188367        	1.3593103359e+01
0.90479234        	1.3342400753e+01
0.90769027        	1.3513894205e+01
0.91055935        	1.4150563869e+01
0.91339748        	1.5282977712e+01
0.91621675        	1.6902022499e+01
0.91903566        	1.8958789003e+01
0.92187095        	2.1382557651e+01
0.92473037        	2.4090505775e+01
0.92761162        	2.6962458493e+01
0.93050462        	2.9867363470e+01
0.93339629        	3.2720478757e+01
0.93627543        	3.5478201186e+01
0.9391387         	3.8144021807e+01
0.94198557        	4.0758332412e+01
0.94482032        	4.3359500682e+01
0.94765004        	4.5927052528e+01
0.95047348        	4.8362699745e+01
0.95326779        	5.0515684620e+01
0.95603564        	5.2261331273e+01
0.95877887        	5.3526112810e+01
0.96149725        	5.4304791381e+01
0.96419042        	5.4647828963e+01
0.96686101        	5.4657956952e+01
0.96951186        	5.4441707755e+01
0.97214673        	5.4069362876e+01
0.97477439        	5.3603379619e+01
0.97740206        	5.3093369776e+01
0.98004441        	5.2533261340e+01
0.98270916        	5.1869515287e+01
0.98539915        	5.1051623025e+01
0.98810301        	5.0059114689e+01
0.99080687        	4.8887835738e+01
0.99351073        	4.7551130323e+01
0.9962146         	4.6078229694e+01
0.99891846        	4.4496507282e+01
1.0015828         	4.2847521163e+01
1.0042128         	4.1137574118e+01
1.0068413         	3.9346460633e+01
1.0094768         	3.7465056659e+01
1.0121251         	3.5481869223e+01
1.0147879         	3.3365326086e+01
1.0174634         	3.1093534512e+01
1.0201478         	2.8698043238e+01
1.0228401         	2.6257484220e+01
1.0255423         	2.3846674013e+01
1.0282583         	2.1545929490e+01
1.0309925         	1.9440416502e+01
1.0337489         	1.7599469601e+01
1.036531          	1.6069620761e+01
1.0393399         	1.4887771353e+01
1.0421767         	1.4081893574e+01
1.0450377         	1.3670118768e+01
1.0479138         	1.3659663109e+01
1.0507915         	1.4049497797e+01
1.0536602         	1.4831283058e+01
1.0565109         	1.6001509806e+01
1.0593467         	1.7548168110e+01
1.0621797         	1.9432394428e+01
1.0650126         	2.1601734207e+01
1.067859          	2.4013754605e+01
1.0707207         	2.6604237854e+01
1.0735965         	2.9304277495e+01
1.0764822         	3.2058893343e+01
1.0793678         	3.4816621849e+01
1.0822534         	3.7549753109e+01
1.0851324         	4.0248122783e+01
1.0879916         	4.2900940177e+01
1.0908507         	4.5497643625e+01
1.0936839         	4.7935249946e+01
1.096491          	5.0109754549e+01
1.0992982         	5.1931413368e+01
1.1020544         	5.3297257700e+01
1.1047735         	5.4182136881e+01
1.1074732         	5.4607289043e+01
1.1101548         	5.4657147448e+01
1.1128208         	5.4405118365e+01
1.1154728         	5.3940594493e+01
1.118114          	5.3365405213e+01
1.1207512         	5.2722266745e+01
1.1233938         	5.2034173040e+01
1.1260508         	5.1290154423e+01
1.1287303         	5.0446706539e+01
1.1314326         	4.9487771272e+01
1.1341371         	4.8406960627e+01
1.1368336         	4.7209903239e+01
1.1395157         	4.5909044778e+01
1.1421792         	4.4504259552e+01
1.1448248         	4.2988382866e+01
1.1474558         	4.1346757516e+01
1.150083          	3.9562180704e+01
1.1527102         	3.7644730228e+01
1.155346          	3.5604041743e+01
1.1579943         	3.3430605265e+01
1.1606577         	3.1126468542e+01
1.1633369         	2.8727925130e+01
1.166032          	2.6293850434e+01
1.1687448         	2.3892995119e+01
1.1714784         	2.1600609652e+01
1.1742346         	1.9498407271e+01
1.1770137         	1.7663826094e+01
1.1798139         	1.6161399387e+01
1.1826336         	1.5039415961e+01
1.1854615         	1.4329109983e+01
1.1883122         	1.4034417484e+01
1.1911628         	1.4149556778e+01
1.1940135         	1.4648054924e+01
1.1968642         	1.5504015209e+01
1.1997149         	1.6696751606e+01
