# Region type :   sampledSurface planeZ5
# Faces           : 988
# Area            : 8.2953449955e-02
# Scale factor    : 1.0000000000e+00
# Time            	areaAverage(H2)
0.0022358089      	0.0000000000e+00
0.015527971       	0.0000000000e+00
0.019693522       	0.0000000000e+00
0.022045484       	1.0277353072e-297
0.024186246       	8.5071271595e-272
0.026558752       	1.0343233795e-241
0.029169119       	7.7996629534e-216
0.031745672       	3.5481836167e-197
0.034244918       	1.9500895855e-183
0.036713367       	3.0386374739e-173
0.039185376       	1.6075957320e-165
0.04170364        	4.8951612273e-159
0.04442218        	4.8781774570e-152
0.048075471       	7.4152554423e-140
0.054543308       	3.4681824853e-111
0.061244913       	1.4799445571e-92
0.068281144       	1.4749344845e-79
0.07331125        	1.9520589877e-73
0.076742118       	9.9751212568e-70
0.079728037       	1.5004711266e-66
0.082501526       	1.2567490802e-63
0.085064387       	5.7136574595e-61
0.087441537       	1.4721879300e-58
0.089748402       	2.7676706017e-56
0.092171667       	5.6061264095e-54
0.094928063       	1.8928355678e-51
0.09806981        	1.1805954089e-48
0.10147702        	1.0666727900e-45
0.10562124        	3.1694942672e-42
0.11035133        	1.1044172705e-38
0.11550021        	1.7870936030e-35
0.12069832        	8.4369386434e-33
0.12485947        	6.7002668659e-31
0.12822924        	1.4826351943e-29
0.13123858        	2.0685335762e-28
0.13416336        	2.1722463588e-27
0.13752629        	2.1939996646e-26
0.14164594        	1.8331703237e-25
0.14620537        	1.2567491261e-24
0.15052302        	6.3912085808e-24
0.15469468        	2.9288830452e-23
0.15884774        	1.1296241263e-22
0.16250405        	3.0971454865e-22
0.1655988         	6.8058979428e-22
0.16839322        	1.3674558921e-21
0.17121593        	2.7603758576e-21
0.17455489        	6.2508859371e-21
0.17957469        	1.9617333662e-20
0.18544243        	6.6835032474e-20
0.18946828        	1.8150217185e-19
0.19260383        	4.3174134310e-19
0.19550796        	1.0347624331e-18
0.19846572        	2.6744380096e-18
0.20163256        	7.7818579731e-18
0.2050676         	2.6232877027e-17
0.20852625        	9.3611247021e-17
0.21182998        	3.2782689111e-16
0.21506869        	1.3029972364e-15
0.21839116        	9.2100684876e-15
0.22180701        	1.1994847463e-13
0.22509996        	1.4868870793e-12
0.22806391        	1.2561878037e-11
0.23072215        	7.5903974759e-11
0.23320453        	3.6127769157e-10
0.23563409        	1.4657287070e-09
0.23809274        	5.3783022913e-09
0.24064078        	1.8551891066e-08
0.24331244        	6.1711045664e-08
0.24610615        	2.0092623846e-07
0.24897426        	6.3929468361e-07
0.25184353        	1.9602521299e-06
0.25468391        	5.6886012054e-06
0.25748199        	1.5409326540e-05
0.2602108         	3.8222168154e-05
0.2628525         	8.5974498957e-05
0.26539736        	1.7565016700e-04
0.2678591         	3.2940161066e-04
0.27027786        	5.7507061876e-04
0.27272264        	9.4872416217e-04
0.27528775        	1.5023735610e-03
0.2781117         	2.3217394726e-03
0.28131343        	3.5127342511e-03
0.28485995        	5.1229805412e-03
0.28838518        	6.9741405010e-03
0.2915943         	8.8270034339e-03
0.29455589        	1.0635482715e-02
0.29742121        	1.2419292620e-02
0.30030075        	1.4184845205e-02
0.30345027        	1.6022161209e-02
0.30693362        	1.7893355921e-02
0.31078374        	1.9749669074e-02
0.31496746        	2.1515997972e-02
0.31944312        	2.3155090266e-02
0.32399801        	2.4644645604e-02
0.32821234        	2.5958771535e-02
0.33187209        	2.7104915410e-02
0.335228          	2.8165881538e-02
0.33867088        	2.9254718950e-02
0.34263605        	3.0517388252e-02
0.34725219        	3.2075748087e-02
0.35206344        	3.3963557049e-02
0.35633348        	3.5992877845e-02
0.36003279        	3.8072343283e-02
0.36340358        	4.0242905374e-02
0.36659986        	4.2539376865e-02
0.36973806        	4.4988076620e-02
0.37291498        	4.7576243026e-02
0.37620319        	5.0220463780e-02
0.37959858        	5.2775533185e-02
0.38299965        	5.5069957931e-02
0.38624918        	5.6917730356e-02
0.38925891        	5.8171061466e-02
0.39204331        	5.8721929108e-02
0.39467642        	5.8485954786e-02
0.39722746        	5.7415578145e-02
0.39974795        	5.5533813034e-02
0.40230144        	5.2925023836e-02
0.40489958        	4.9807519912e-02
0.40755121        	4.6500422492e-02
0.41026212        	4.3380523085e-02
0.4130285         	4.0826861157e-02
0.415831          	3.9140011200e-02
0.41863655        	3.8447345138e-02
0.4214071         	3.8669121641e-02
0.42411274        	3.9576841701e-02
0.42674725        	4.0904605596e-02
0.42933027        	4.2439990962e-02
0.43190297        	4.4060074545e-02
0.43451998        	4.5724148385e-02
0.43724974        	4.7454083970e-02
0.44016712        	4.9312140185e-02
0.44333538        	5.1379413678e-02
0.44675143        	5.3703425493e-02
0.45028338        	5.6218550844e-02
0.45375776        	5.8769145110e-02
0.45710582        	6.1223504873e-02
0.46039243        	6.3549206873e-02
0.46366376        	6.5724074930e-02
0.46707491        	6.7813514079e-02
0.47081551        	6.9895287742e-02
0.47503826        	7.2001296328e-02
0.47962747        	7.4057341166e-02
0.48403634        	7.5959703844e-02
0.48809181        	7.7868728416e-02
0.49191542        	7.9995808427e-02
0.49567569        	8.2520303378e-02
0.49943596        	8.5562330806e-02
0.50337786        	8.9432784144e-02
0.50738904        	9.4219725872e-02
0.511306          	9.9798545146e-02
0.51501937        	1.0588930601e-01
0.51848663        	1.1214757247e-01
0.52173933        	1.1831949869e-01
0.52483712        	1.2421731531e-01
0.52784454        	1.2962196268e-01
0.53081718        	1.3415056084e-01
0.53379805        	1.3716138734e-01
0.53679296        	1.3780224738e-01
0.53977843        	1.3538537185e-01
0.54270666        	1.2988713978e-01
0.5455361         	1.2205534390e-01
0.54825638        	1.1294478331e-01
0.55088685        	1.0342455959e-01
0.55346062        	9.4027236014e-02
0.55601206        	8.5039548798e-02
0.5585701         	7.6627338829e-02
0.5611587         	6.8904148379e-02
0.56379037        	6.1986020159e-02
0.56647027        	5.5984775513e-02
0.56919409        	5.0998856945e-02
0.57195113        	4.7085926224e-02
0.57472762        	4.4241532970e-02
0.57751369        	4.2389065639e-02
0.58030702        	4.1394129214e-02
0.58312597        	4.1088848392e-02
0.58598668        	4.1302990727e-02
0.58892537        	4.1882179650e-02
0.59196954        	4.2701941462e-02
0.5951645         	4.3682467132e-02
0.59849933        	4.4771000188e-02
0.60199764        	4.5961864718e-02
0.6057417         	4.7286834307e-02
0.60953807        	4.8661064794e-02
0.61324852        	4.9982113759e-02
0.61691476        	5.1211145221e-02
0.62064779        	5.2366900396e-02
0.6245849         	5.3513929973e-02
0.62884641        	5.4752818902e-02
0.63329432        	5.6180174667e-02
0.63762157        	5.7916590412e-02
0.64169046        	6.0154792528e-02
0.64552343        	6.3134221652e-02
0.64922412        	6.7182828581e-02
0.65287015        	7.2695671508e-02
0.65648756        	7.9987256518e-02
0.66005999        	8.8975971150e-02
0.66353919        	9.8945551242e-02
0.66688566        	1.0886617286e-01
0.67009424        	1.1794287377e-01
0.67317487        	1.2573094145e-01
0.67614399        	1.3202092650e-01
0.67902465        	1.3669557179e-01
0.68184097        	1.3962442207e-01
0.68461902        	1.4064268236e-01
0.68737321        	1.3958565624e-01
0.69011817        	1.3634769028e-01
0.69286312        	1.3094363323e-01
0.69560807        	1.2360279105e-01
0.69835303        	1.1476316796e-01
0.70106737        	1.0509423811e-01
0.70371305        	9.5311159917e-02
0.70633321        	8.5731714317e-02
0.70894285        	7.6672689630e-02
0.71156083        	6.8381691633e-02
0.71420638        	6.1055463893e-02
0.71690218        	5.4831215039e-02
0.71966695        	4.9805671462e-02
0.72251387        	4.6016774098e-02
0.72544917        	4.3429349486e-02
0.72846903        	4.1934157825e-02
0.73155919        	4.1357192463e-02
0.73470774        	4.1490197783e-02
0.7379018         	4.2133883028e-02
0.74116816        	4.3134172506e-02
0.7445607         	4.4392475205e-02
0.74813783        	4.5843988187e-02
0.75193897        	4.7431448532e-02
0.75593565        	4.9077744354e-02
0.76001221        	5.0694182173e-02
0.76407209        	5.2246081861e-02
0.76809048        	5.3783274279e-02
0.77210713        	5.5441583764e-02
0.77618276        	5.7438547867e-02
0.78028918        	6.0039366975e-02
0.78438546        	6.3589335049e-02
0.78839987        	6.8462362229e-02
0.79226675        	7.4994158992e-02
0.79596571        	8.3354079616e-02
0.79947738        	9.3210341173e-02
0.80288058        	1.0394134298e-01
0.80618367        	1.1445589547e-01
0.80941903        	1.2390079265e-01
0.81259509        	1.3172967971e-01
0.81570475        	1.3770213705e-01
0.81873636        	1.4176862207e-01
0.82168065        	1.4393769172e-01
0.8245395         	1.4422922614e-01
0.82732425        	1.4268301883e-01
0.83005183        	1.3938014845e-01
0.83274095        	1.3445614908e-01
0.83540989        	1.2810480549e-01
0.8380734         	1.2058154527e-01
0.84074041        	1.1220589523e-01
0.84341463        	1.0334512484e-01
0.8460964         	9.4373680094e-02
0.84877817        	8.5649191406e-02
0.85146177        	7.7433851229e-02
0.85415087        	6.9922014026e-02
0.856852          	6.3252949352e-02
0.85957943        	5.7512512194e-02
0.86235248        	5.2747961053e-02
0.86518955        	4.8976626771e-02
0.86810895        	4.6175059716e-02
0.87112149        	4.4282102037e-02
0.87423269        	4.3200007604e-02
0.87743883        	4.2808778607e-02
0.88074479        	4.2981160548e-02
0.88415632        	4.3601145843e-02
0.88768369        	4.4565900220e-02
0.89133144        	4.5778547103e-02
0.89509311        	4.7142633473e-02
0.89886764        	4.8538448219e-02
0.90278436        	4.9968833822e-02
0.90683954        	5.1445549347e-02
0.91095972        	5.3026448789e-02
0.91510112        	5.4845509000e-02
0.91920394        	5.7090994900e-02
0.92321909        	6.0009334878e-02
0.9271576         	6.3965395980e-02
0.93102393        	6.9424998999e-02
0.9348017         	7.6843725715e-02
0.9384699         	8.6396848042e-02
0.9420134         	9.7599161522e-02
0.94542301        	1.0928212844e-01
0.94871594        	1.2025852731e-01
0.951909          	1.2975220048e-01
0.95501647        	1.3739912956e-01
0.95805011        	1.4305062948e-01
0.96101516        	1.4661109711e-01
0.96391896        	1.4799504012e-01
0.96676724        	1.4716145526e-01
0.96956582        	1.4418520357e-01
0.9723226         	1.3928002734e-01
0.97504561        	1.3277225369e-01
0.97774076        	1.2505548361e-01
0.98041568        	1.1653322242e-01
0.98308021        	1.0758608939e-01
0.98574474        	9.8558713402e-02
0.98840928        	8.9781439925e-02
0.99107381        	8.1525155579e-02
0.99376214        	7.3936519799e-02
0.99647425        	6.7188862433e-02
0.99918637        	6.1450084664e-02
1.0019658         	5.6662266260e-02
1.0048227         	5.2870851662e-02
1.007745          	5.0085700444e-02
1.0107384         	4.8220719581e-02
1.0138024         	4.7147068867e-02
1.0169398         	4.6712188261e-02
1.0201638         	4.6770476327e-02
1.023497          	4.7207203547e-02
1.026963          	4.7940631351e-02
1.0305787         	4.8912020694e-02
1.0343441         	5.0068657347e-02
1.0382373         	5.1354009072e-02
1.0421906         	5.2708736599e-02
1.0461367         	5.4102534484e-02
1.0501033         	5.5580575787e-02
1.0541201         	5.7240339858e-02
1.0582171         	5.9247925166e-02
1.0623235         	6.1798738507e-02
1.0663538         	6.5133120802e-02
1.070279          	6.9577693879e-02
1.0740859         	7.5510773362e-02
1.0777656         	8.3224686925e-02
1.081326          	9.2702541695e-02
1.0847714         	1.0333827642e-01
1.0881132         	1.1407166950e-01
1.0913656         	1.2385605401e-01
1.0945338         	1.3198918659e-01
1.0976573         	1.3823012755e-01
1.1007454         	1.4246990414e-01
1.1036793         	1.4461780056e-01
1.1065462         	1.4485843388e-01
1.1093569         	1.4326097599e-01
1.1121209         	1.3993638583e-01
1.1148516         	1.3505198857e-01
1.1175594         	1.2883173682e-01
1.1202502         	1.2155951081e-01
1.1229319         	1.1354736921e-01
1.1256093         	1.0512372524e-01
1.1282852         	9.6604823466e-02
1.1309657         	8.8263869032e-02
1.1336564         	8.0333342678e-02
1.1363642         	7.3002521449e-02
1.1390973         	6.6423112370e-02
1.1418692         	6.0704097417e-02
1.144692          	5.5920990307e-02
1.1475786         	5.2103597681e-02
1.1505408         	4.9234187191e-02
1.1535874         	4.7247654836e-02
1.1567149         	4.6043466289e-02
1.1599267         	4.5493437032e-02
1.163232          	4.5470449762e-02
1.1666441         	4.5865544539e-02
1.1701794         	4.6590642614e-02
1.1738563         	4.7574364551e-02
1.1776753         	4.8752647556e-02
1.1816114         	5.0065525506e-02
1.185566          	5.1449984430e-02
1.1895205         	5.2905407767e-02
1.193475          	5.4482825480e-02
1.1974296         	5.6285771085e-02
