# Region type :   patch outlet
# Faces           : 387
# Area            : 8.2961616953e-02
# Scale factor    : 1.0000000000e+00
# Time            	areaAverage(H2)
0.0021681777      	0.0000000000e+00
0.0098950663      	0.0000000000e+00
0.017629395       	0.0000000000e+00
0.025363724       	0.0000000000e+00
0.033098053       	0.0000000000e+00
0.040832383       	6.7309994954e-291
0.048566712       	1.7317654362e-264
0.056301041       	4.1473134360e-242
0.06403537        	3.8218005910e-223
0.071769699       	4.5739035480e-207
0.079428334       	9.5827595962e-194
0.086939267       	2.1734811638e-182
0.094622051       	1.0804654624e-171
0.10232558        	8.1519996033e-162
0.11007752        	6.8901877674e-153
0.11782946        	1.4852245565e-145
0.1255814         	2.7641173007e-140
0.13333333        	8.5024724094e-137
0.14108527        	3.4565626056e-134
0.14883721        	7.2695831695e-132
0.15658915        	9.2750746086e-130
0.16434109        	9.0471439857e-128
0.17209302        	8.9634044891e-126
0.17984496        	8.4426120245e-124
0.1875969         	6.6739797509e-122
0.19534884        	6.2599357200e-120
0.20310078        	1.9605826312e-117
0.21085271        	7.1321198411e-114
0.21860465        	2.5457116516e-109
0.22635659        	2.6487748487e-104
0.23410853        	7.1669101492e-99
0.24186047        	2.8524673056e-93
0.2496124         	6.9325529517e-88
0.25736434        	7.9779022094e-83
0.26511628        	4.9351399309e-78
0.27286822        	1.4958401411e-73
0.28062016        	1.4304335399e-69
0.28837209        	3.1949251372e-66
0.29612403        	1.5796377189e-63
0.30387597        	2.0367786409e-61
0.31162791        	1.0540019648e-59
0.31937984        	3.0960430784e-58
0.32713178        	6.4973577525e-57
0.33488372        	1.1046262009e-55
0.34263566        	1.6827805849e-54
0.3503876         	2.4690829394e-53
0.35788617        	3.4109525218e-52
0.3644252         	4.1117678467e-51
0.37122571        	9.5583380015e-50
0.37876428        	7.6386244562e-48
0.3859473         	9.1818436186e-46
0.39232858        	7.6018714373e-44
0.39803297        	3.7070810366e-42
0.4033449         	1.2377424877e-40
0.40833211        	2.8923725051e-39
0.4132434         	5.8724236988e-38
0.41827504        	1.2093685767e-36
0.42361946        	2.8468813588e-35
0.42937066        	7.9022082898e-34
0.43541406        	2.2937618305e-32
0.44171094        	6.3171928447e-31
0.4482519         	1.4723310136e-29
0.45496725        	2.5103377967e-28
0.46185956        	2.9623597654e-27
0.46915788        	2.6362310929e-26
0.47686841        	1.8408251366e-25
0.48457894        	9.8171288596e-25
0.49228947        	4.2876957060e-24
0.5               	1.5808126513e-23
0.50775194        	5.1404624380e-23
0.51550388        	1.5811334123e-22
0.52325581        	5.0950997730e-22
0.53100775        	1.9510125911e-21
0.53875969        	9.9351548310e-21
0.5463935         	6.7921015460e-20
0.55319326        	4.7094276689e-19
0.55912692        	2.8538315643e-18
0.56459034        	1.5797802630e-17
0.56977847        	8.1743868468e-17
0.57499873        	4.2714790620e-16
0.58045502        	2.3881257860e-15
0.58623229        	1.4538368714e-14
0.59221825        	9.1028043793e-14
0.59820421        	5.3227331825e-13
0.6041817         	2.8227203825e-12
0.61015464        	1.3155502231e-11
0.6161839         	5.3038545679e-11
0.62241622        	1.8816960926e-10
0.62914865        	6.1817716858e-10
0.63670455        	1.9639524709e-09
0.6444235         	5.4565523669e-09
0.65214246        	1.3149490031e-08
0.65986142        	2.7739884100e-08
0.66758038        	5.2447594684e-08
0.67529934        	9.3129476221e-08
0.68301829        	1.6458967304e-07
0.69073725        	3.0714767335e-07
0.69845621        	6.3332101940e-07
0.70618748        	1.4558444606e-06
0.7131026         	3.2725647721e-06
0.71909174        	6.7846854960e-06
0.72465797        	1.3497325538e-05
0.73000751        	2.6118798923e-05
0.73545698        	5.0639250660e-05
0.74120197        	9.9595667552e-05
0.74725353        	1.9563721389e-04
0.75339586        	3.6792481976e-04
0.75940837        	6.3979437837e-04
0.76528441        	1.0254291425e-03
0.77107872        	1.5254238393e-03
0.77692929        	2.1332405827e-03
0.78299757        	2.8370568487e-03
0.78958741        	3.6420418655e-03
0.79698335        	4.5511079709e-03
0.80465116        	5.4574834062e-03
0.8124031         	6.2924662643e-03
0.82015504        	7.0104557653e-03
0.82790698        	7.6118921575e-03
0.83565891        	8.1401001662e-03
0.84341085        	8.6636700667e-03
0.85116279        	9.2579208813e-03
0.85891473        	9.9909303915e-03
0.86662454        	1.0906904571e-02
0.87339086        	1.1888886836e-02
0.8793186         	1.2898143739e-02
0.88491227        	1.3987645731e-02
0.89039871        	1.5186605034e-02
0.89602232        	1.6528722375e-02
0.90182104        	1.7972369766e-02
0.90801138        	1.9457937607e-02
0.91410285        	2.0713052235e-02
0.92004713        	2.1636337527e-02
0.92589954        	2.2267481785e-02
0.93174881        	2.2746028592e-02
0.9377372         	2.3251851255e-02
0.94407399        	2.3961408200e-02
0.95107909        	2.5046213628e-02
0.95876783        	2.6586375493e-02
0.96647478        	2.8366487652e-02
0.97418173        	3.0180709169e-02
0.98188867        	3.1859834032e-02
0.98959562        	3.3375161000e-02
0.99730257        	3.4849450021e-02
1.0050388         	3.6495698111e-02
1.0127907         	3.8530955181e-02
1.0205426         	4.1087995200e-02
1.0278027         	4.3895556752e-02
1.0341166         	4.6394942956e-02
1.0399833         	4.8325052468e-02
1.0456489         	4.9254275022e-02
1.0513418         	4.8625769629e-02
1.0572585         	4.5897378613e-02
1.0633903         	4.1102538342e-02
1.0694907         	3.5264554492e-02
1.0754545         	2.9568353028e-02
1.0813691         	2.4707406009e-02
1.0872837         	2.1024838785e-02
1.0932841         	1.8567374744e-02
1.0993895         	1.7253542198e-02
1.1061152         	1.6911360227e-02
1.1136317         	1.7496824558e-02
1.1213778         	1.8746799083e-02
1.1291238         	2.0283921305e-02
1.1368698         	2.1840063771e-02
1.1446159         	2.3296638445e-02
1.1523619         	2.4689143385e-02
1.1601079         	2.6152600422e-02
1.167854          	2.7855688560e-02
1.1756            	2.9933259454e-02
1.1831143         	3.2329361590e-02
1.1897793         	3.4655157244e-02
1.1959776         	3.6753976463e-02
