# Region type :   patch main_inlet
# Faces           : 356
# Area            : 8.2961564767e-02
# Scale factor    : 1.0000000000e+00
# Time            	sum(phi)
0.0022358089      	-3.3864546780e+01
0.018084408       	-3.3891631413e+01
0.024497192       	-3.3923105025e+01
0.031401341       	-3.3965718738e+01
0.039420327       	-3.3991085602e+01
0.049004118       	-3.3965980801e+01
0.062474553       	-3.3931123679e+01
0.072161275       	-3.3887479905e+01
0.078750915       	-3.3832905027e+01
0.084240004       	-3.3726451786e+01
0.089731282       	-3.3588564841e+01
0.095789071       	-3.3487228137e+01
0.10271464        	-3.3462294822e+01
0.11294791        	-3.3409201233e+01
0.12527129        	-3.3352294621e+01
0.13622762        	-3.3353378169e+01
0.14542506        	-3.3359118590e+01
0.15523419        	-3.3397166293e+01
0.1681008         	-3.3555823836e+01
0.18163693        	-3.3768963230e+01
0.19441409        	-3.3869587229e+01
0.20470231        	-3.3924501473e+01
0.21602668        	-3.3939799964e+01
0.22814628        	-3.3935244689e+01
0.23815454        	-3.3913342315e+01
0.24619558        	-3.3855993231e+01
0.25359939        	-3.3766270997e+01
0.26129181        	-3.3656023760e+01
0.26986717        	-3.3547006428e+01
0.27910187        	-3.3462857637e+01
0.28838993        	-3.3412641730e+01
0.29840362        	-3.3392981556e+01
0.31024045        	-3.3377443472e+01
0.32437282        	-3.3391288623e+01
0.33911875        	-3.3532712062e+01
0.3545752         	-3.3730020264e+01
0.37010892        	-3.3853565611e+01
0.38266058        	-3.3900349489e+01
0.39391412        	-3.3915312535e+01
0.40333281        	-3.3908469874e+01
0.41056329        	-3.3886041144e+01
0.41676808        	-3.3847520169e+01
0.42232424        	-3.3796411679e+01
0.42748353        	-3.3738817627e+01
0.43242971        	-3.3680531338e+01
0.43731291        	-3.3624820626e+01
0.44225949        	-3.3574099965e+01
0.44736834        	-3.3530514118e+01
0.45269753        	-3.3494977777e+01
0.4582629         	-3.3466536212e+01
0.46407473        	-3.3443431197e+01
0.47016289        	-3.3424736602e+01
0.47656556        	-3.3411182166e+01
0.48339228        	-3.3406786066e+01
0.49096059        	-3.3420093627e+01
0.49955977        	-3.3466124637e+01
0.50917117        	-3.3553554815e+01
0.51916131        	-3.3658873292e+01
0.52852039        	-3.3742548471e+01
0.53680529        	-3.3796585495e+01
0.54417908        	-3.3833013938e+01
0.5508709         	-3.3859914524e+01
0.5571255         	-3.3879107207e+01
0.56307492        	-3.3888769407e+01
0.56875177        	-3.3886959785e+01
0.57414632        	-3.3873559229e+01
0.57927442        	-3.3849988303e+01
0.58420943        	-3.3817868284e+01
0.58906807        	-3.3778591372e+01
0.5939267         	-3.3734175547e+01
0.59878534        	-3.3687787428e+01
0.60369303        	-3.3642563487e+01
0.6086905         	-3.3601087985e+01
0.61380761        	-3.3563799584e+01
0.61908567        	-3.3530091525e+01
0.62454629        	-3.3499064237e+01
0.63020669        	-3.3469840272e+01
0.63610906        	-3.3443460341e+01
0.64236232        	-3.3423717778e+01
0.64912382        	-3.3417021684e+01
0.65663216        	-3.3431891154e+01
0.6651048         	-3.3477100808e+01
0.67448086        	-3.3551099800e+01
0.68411073        	-3.3634527142e+01
0.69331481        	-3.3706643916e+01
0.70202424        	-3.3765179939e+01
0.70964644        	-3.3810443809e+01
0.71661326        	-3.3845464678e+01
0.7230491         	-3.3868474653e+01
0.72905432        	-3.3877320921e+01
0.73470005        	-3.3872367314e+01
0.74005442        	-3.3855464179e+01
0.74519801        	-3.3829314383e+01
0.75021524        	-3.3796625836e+01
0.75517467        	-3.3759877578e+01
0.76012774        	-3.3721279094e+01
0.76511257        	-3.3682494901e+01
0.7701464         	-3.3644722433e+01
0.77524087        	-3.3608302386e+01
0.78042665        	-3.3572752673e+01
0.78573837        	-3.3537803274e+01
0.7911935         	-3.3504064060e+01
0.79686465        	-3.3473168684e+01
0.80274442        	-3.3448823872e+01
0.80918723        	-3.3435189882e+01
0.81625692        	-3.3439087362e+01
0.82408145        	-3.3466371069e+01
0.83269258        	-3.3517221897e+01
0.84185879        	-3.3583086997e+01
0.8510553         	-3.3651557480e+01
0.85980826        	-3.3714867599e+01
0.86790459        	-3.3769551504e+01
0.87530841        	-3.3812718128e+01
0.88208273        	-3.3841886081e+01
0.88832826        	-3.3856103473e+01
0.89416528        	-3.3856352444e+01
0.89972216        	-3.3844665322e+01
0.90501227        	-3.3823841930e+01
0.91015573        	-3.3796438258e+01
0.91522626        	-3.3764671935e+01
0.92027232        	-3.3730364591e+01
0.92531923        	-3.3695191030e+01
0.93038784        	-3.3659916316e+01
0.93550243        	-3.3624826429e+01
0.94069479        	-3.3589694085e+01
0.94600296        	-3.3554787307e+01
0.95147338        	-3.3521198362e+01
0.95716314        	-3.3491182313e+01
0.96314931        	-3.3468167550e+01
0.96955252        	-3.3456227424e+01
0.97651495        	-3.3459558773e+01
0.98414977        	-3.3481890023e+01
0.992413          	-3.3523591545e+01
1.000885          	-3.3577542273e+01
1.0097534         	-3.3638976447e+01
1.0183554         	-3.3698858941e+01
1.0264007         	-3.3752106667e+01
1.033795          	-3.3794048279e+01
1.0405863         	-3.3822044777e+01
1.0468697         	-3.3835750157e+01
1.052752          	-3.3836593419e+01
1.0583263         	-3.3826891770e+01
1.0636883         	-3.3808991006e+01
1.0689127         	-3.3784881581e+01
1.0740644         	-3.3756245444e+01
1.0792002         	-3.3724584388e+01
1.0843359         	-3.3691335062e+01
1.0894717         	-3.3657623708e+01
1.0946075         	-3.3624181978e+01
1.0997432         	-3.3591418819e+01
1.1051214         	-3.3558641928e+01
1.1106862         	-3.3527965068e+01
1.1164774         	-3.3501858325e+01
1.1225607         	-3.3483456875e+01
1.129046          	-3.3475585408e+01
1.1360442         	-3.3481243696e+01
1.1436091         	-3.3502796166e+01
1.1516895         	-3.3540629104e+01
1.1601404         	-3.3590869577e+01
1.1686957         	-3.3646581226e+01
1.1769874         	-3.3700669398e+01
1.184772          	-3.3747636232e+01
1.1919716         	-3.3783662290e+01
1.1986772         	-3.3807079372e+01
