# Region type :   patch outlet
# Faces           : 387
# Area            : 8.2961617386e-02
# Scale factor    : 1.0000000000e+00
# Time            	areaAverage(H2)
0.0022201342      	0.0000000000e+00
0.0092362185      	0.0000000000e+00
0.01329353        	0.0000000000e+00
0.017032701       	0.0000000000e+00
0.020824973       	0.0000000000e+00
0.02425977        	0.0000000000e+00
0.02755924        	0.0000000000e+00
0.030546514       	0.0000000000e+00
0.03329083        	0.0000000000e+00
0.035986112       	0.0000000000e+00
0.038646928       	0.0000000000e+00
0.041237274       	1.6092507478e-314
0.043779756       	3.8728713247e-305
0.046250846       	1.4802933449e-297
0.048613841       	8.2054246395e-291
0.050901729       	3.0913628388e-284
0.053161592       	8.7293613290e-278
0.055398989       	1.4271639170e-271
0.057607046       	1.1679403446e-265
0.059791216       	4.8273491761e-260
0.061940518       	9.2612824069e-255
0.064031554       	7.2896005445e-250
0.066061852       	2.5088999769e-245
0.068047089       	4.5094106794e-241
0.069995134       	4.7137151645e-237
0.071910281       	3.0862372796e-233
0.07380231        	1.3868898823e-229
0.075680105       	4.6142373642e-226
0.077539503       	1.1506029742e-222
0.079373814       	2.1847876871e-219
0.081183256       	3.3402541401e-216
0.08297507        	4.4336903575e-213
0.084752428       	5.2738221483e-210
0.086517486       	5.6968436476e-207
0.088272663       	5.7112403130e-204
0.09001732        	5.4425987565e-201
0.091743793       	4.8858231217e-198
0.093447206       	4.0298941587e-195
0.095127409       	2.9530395119e-192
0.096781083       	1.8232007579e-189
0.09843181        	1.0265663009e-186
0.10008137        	5.2089307476e-184
0.10170691        	2.1319327872e-181
0.10332816        	7.6113008057e-179
0.10494243        	2.3287123532e-176
0.10654737        	6.0098549261e-174
0.10814182        	1.2872945893e-171
0.10972515        	2.2410628764e-169
0.11129903        	3.1029584658e-167
0.11286693        	3.3196323942e-165
0.11443111        	2.6246667025e-163
0.11599079        	1.4516015552e-161
0.11754478        	5.3770784529e-160
0.11909147        	1.3075173046e-158
0.12062904        	2.1100263266e-157
0.12215766        	2.3669216938e-156
0.12367987        	1.9882213089e-155
0.12519791        	1.3643523897e-154
0.12671249        	8.3233362357e-154
0.12822341        	4.8326258007e-153
0.12972916        	2.7807659193e-152
0.13122777        	1.6061685130e-151
0.13271891        	9.2809648295e-151
0.13420429        	5.3261916669e-150
0.13568575        	3.0178782146e-149
0.13716482        	1.6831031414e-148
0.13864155        	9.2152225669e-148
0.14011517        	4.9426580321e-147
0.14158463        	2.5939934268e-146
0.14305087        	1.3353401658e-145
0.14451581        	6.7727868710e-145
0.1459823         	3.4048524955e-144
0.14745128        	1.7031563326e-143
0.14892118        	8.4827137776e-143
0.15039107        	4.2105952762e-142
0.15185867        	2.0803761941e-141
0.15332347        	1.0235275915e-140
0.1547861         	5.0216320174e-140
0.15624577        	2.4560100350e-139
0.15770034        	1.1946441988e-138
0.15914792        	5.7642497125e-138
0.16058786        	2.7545515035e-137
0.16202099        	1.3039921835e-136
0.16344833        	6.1207290401e-136
0.16486832        	2.8438653450e-135
0.16627873        	1.3047510002e-134
0.16767759        	5.8956050061e-134
0.16906414        	2.6193593568e-133
0.1704376         	1.1419678463e-132
0.17179527        	4.8645563645e-132
0.17313264        	2.0123617828e-131
0.1744445         	8.0329229887e-131
0.17572672        	3.0803329887e-130
0.17697529        	1.1306656627e-129
0.17818528        	3.9572858223e-129
0.17935189        	1.3163399045e-128
0.18047           	4.1473031457e-128
0.18153739        	1.2371625849e-127
0.18255379        	3.4983017296e-127
0.18352157        	9.4089972204e-127
0.18444449        	2.4180470828e-126
0.18532572        	5.9596770179e-126
0.1861697         	1.4165199205e-125
0.1869803         	3.2618572118e-125
0.18776184        	7.3189787190e-125
0.18851838        	1.6093111027e-124
0.18925339        	3.4858074118e-124
0.18997039        	7.4793712406e-124
0.19067224        	1.5978623502e-123
0.19136102        	3.4141128561e-123
0.19203886        	7.3311260154e-123
0.1927069         	1.5882011887e-122
0.19336635        	3.4854972484e-122
0.19401838        	7.7812889403e-122
0.19466355        	1.7731425901e-121
0.19530352        	4.1438692253e-121
0.19593856        	9.9595768923e-121
0.19656932        	2.4690771859e-120
0.1971988         	6.3536623945e-120
0.19782213        	1.6857988126e-119
0.19844438        	4.6509533469e-119
0.19906663        	1.3365958358e-118
0.19968888        	3.9971438789e-118
0.200308          	1.2339043637e-117
0.20092287        	3.9089374456e-117
0.20153648        	1.2726882942e-116
0.20214908        	4.2406778559e-116
0.202761          	1.4395615048e-115
0.20337249        	4.9546478928e-115
0.20398386        	1.7211176662e-114
0.20459523        	6.0066609039e-114
0.20520661        	2.0971908670e-113
0.20581815        	7.3021439225e-113
0.20642987        	2.5286817523e-112
0.20704186        	8.6937652409e-112
0.20765417        	2.9642057950e-111
0.20826693        	1.0019422376e-110
0.20888028        	3.3582200950e-110
0.20949437        	1.1168232791e-109
0.21010934        	3.6886745449e-109
0.21072529        	1.2112189615e-108
0.21134229        	3.9580989004e-108
0.21196045        	1.2887706422e-107
0.2125799         	4.1860317683e-107
0.21320061        	1.3573556425e-106
0.21382244        	4.3958712019e-106
0.21444534        	1.4225453358e-105
0.21506938        	4.6023723920e-105
0.21569458        	1.4892231034e-104
0.21632102        	4.8208867588e-104
0.21694873        	1.5615826106e-103
0.21757776        	5.0618075400e-103
0.21820802        	1.6416200606e-102
0.21883945        	5.3256005369e-102
0.21947196        	1.7277170459e-101
0.22010543        	5.6030803607e-101
0.2207398         	1.8160137421e-100
0.22137503        	5.8805748143e-100
0.2220111         	1.9020869890e-99
0.22264803        	6.1441361992e-99
0.22328582        	1.9814909143e-98
0.2239244         	6.3769613690e-98
0.22456373        	2.0472348612e-97
0.22520378        	6.5541687057e-97
0.22584445        	2.0915289994e-96
0.2264857         	6.6507827789e-96
0.22712754        	2.1069170403e-95
0.22777002        	6.6487768164e-95
0.22841323        	2.0899860477e-94
0.22905731        	6.5455015878e-94
0.22970244        	2.0429319351e-93
0.23034874        	6.3561384416e-93
0.23099633        	1.9718630962e-92
0.23164529        	6.1009611383e-92
0.23229574        	1.8832675832e-91
0.23294777        	5.8012206719e-91
0.23360143        	1.7837247498e-90
0.2342569         	5.4767913680e-90
0.23491425        	1.6796683874e-89
0.2355736         	5.1469596845e-89
0.23623507        	1.5762659914e-88
0.2368987         	4.8252193091e-88
0.23756454        	1.4765258354e-87
0.23823254        	4.5158158066e-87
0.23890264        	1.3801164558e-86
0.23957474        	4.2135183151e-86
0.24024885        	1.2848183649e-85
0.24092487        	3.9114921580e-85
0.24160283        	1.1887120142e-84
0.24228276        	3.6055920868e-84
0.24296466        	1.0913273506e-83
0.24364845        	3.2953143685e-83
0.24433408        	9.9244267430e-83
0.24502145        	2.9805001522e-82
0.24571045        	8.9243583690e-82
0.24640096        	2.6637897547e-81
0.2470929         	7.9256132109e-81
0.24778622        	2.3506657128e-80
0.24848086        	6.9498455055e-80
0.24917683        	2.0485251451e-79
0.24987407        	6.0195597156e-79
0.25057264        	1.7635303306e-78
0.25127243        	5.1494238252e-78
0.25197345        	1.4984280757e-77
0.25267567        	4.3441662083e-77
0.25337917        	1.2546849577e-76
0.254084          	3.6096722967e-76
0.2547903         	1.0344314520e-75
0.25549822        	2.9529432668e-75
0.2562079         	8.3968675138e-75
0.25691957        	2.3788360859e-74
0.25763324        	6.7133866701e-74
0.25834914        	1.8877141675e-73
0.25906727        	5.2878097112e-73
0.2597877         	1.4754938607e-72
0.26051056        	4.1011353960e-72
0.26123591        	1.1352643724e-71
0.26196382        	3.1290132056e-71
0.26269431        	8.5835753262e-71
0.26342746        	2.3425788448e-70
0.26416315        	6.3553606524e-70
0.26490145        	1.7128341118e-69
0.26564225        	4.5808895581e-69
0.26638549        	1.2143588458e-68
0.26713121        	3.1869915731e-68
0.26787938        	8.2684353198e-68
0.26863005        	2.1173635781e-67
0.26938329        	5.3428493687e-67
0.27013913        	1.3260130319e-66
0.27089756        	3.2303086398e-66
0.27165852        	7.7079304143e-66
0.27242209        	1.7980065130e-65
0.27318826        	4.0921877089e-65
0.27395702        	9.0711709123e-65
0.2747285         	1.9558948549e-64
0.27550259        	4.0970036205e-64
0.27627938        	8.3327628042e-64
0.27705891        	1.6454045233e-63
0.27784122        	3.1558546527e-63
0.27862624        	5.8846210757e-63
0.27941401        	1.0684695511e-62
0.28020436        	1.8926714841e-62
0.28099731        	3.2789501816e-62
0.28179317        	5.5720867821e-62
0.28259166        	9.3130584717e-62
0.28339289        	1.5354884311e-61
0.28419664        	2.5037865914e-61
0.28500337        	4.0487257721e-61
0.2858126         	6.5037857550e-61
0.28662451        	1.0395862198e-60
0.28743901        	1.6552332633e-60
0.28825616        	2.6270340797e-60
0.28907603        	4.1574871873e-60
0.28989868        	6.5613634069e-60
0.290724          	1.0324819677e-59
0.29155222        	1.6198466919e-59
0.29238395        	2.5342003043e-59
0.29321826        	3.9510236434e-59
0.29405551        	6.1397563278e-59
0.29489711        	9.5172524164e-59
0.29574056        	1.4699148251e-58
0.29658991        	2.2672951632e-58
0.29744243        	3.4888884675e-58
0.29829495        	5.3495180709e-58
0.29914748        	8.1774191390e-58
0.3               	1.2468652128e-57
0.30087212        	1.9159700347e-57
0.30174995        	2.9474943909e-57
0.30263384        	4.5415938993e-57
0.303524          	7.0109437674e-57
0.30442049        	1.0844458774e-56
0.30532328        	1.6807420753e-56
0.30623227        	2.6097368156e-56
0.30714718        	4.0588262482e-56
0.30806764        	6.3206251976e-56
0.3089932         	9.8510296674e-56
0.30992301        	1.5355432280e-55
0.3108566         	2.3924364945e-55
0.31179355        	3.7237255825e-55
0.31273348        	5.7870093529e-55
0.31367601        	8.9758315470e-55
0.31462107        	1.3891036568e-54
0.31556863        	2.1447869852e-54
0.31651866        	3.3038923465e-54
0.31747133        	5.0785480945e-54
0.3184268         	7.7919926344e-54
0.3193852         	1.1936818686e-53
0.32034685        	1.8266740088e-53
0.32131212        	2.7936997300e-53
0.32228143        	4.2724385112e-53
0.32325511        	6.5367343039e-53
0.32423364        	1.0010705320e-52
0.32521735        	1.5351943803e-52
0.32620658        	2.3582561647e-52
0.32720172        	3.6292654756e-52
0.32820295        	5.5952488603e-52
0.32921026        	8.6389316460e-52
0.33022355        	1.3352746176e-51
0.33124246        	2.0648876844e-51
0.33226641        	3.1931308816e-51
0.33329468        	4.9351240451e-51
0.33432656        	7.6197266012e-51
0.33536132        	1.1748481910e-50
0.33639816        	1.8084951438e-50
0.33743635        	2.7793156176e-50
0.33847561        	4.2658684644e-50
0.33951554        	6.5427082880e-50
0.34055568        	1.0034907716e-49
0.34159633        	1.5411280003e-49
0.34263739        	2.3732804906e-49
0.34367865        	3.6709431214e-49
0.34472067        	5.7170879657e-49
0.3457627         	8.9852038224e-49
0.34680533        	1.4298462368e-48
0.34784836        	2.3118495087e-48
0.34889139        	3.8121090726e-48
0.34993442        	6.4376336780e-48
0.35097746        	1.1181001904e-47
0.35202049        	2.0051770301e-47
0.35306335        	3.7251541255e-47
0.35410523        	7.1815656815e-47
0.35514711        	1.4389301909e-46
0.35618874        	2.9939965755e-46
0.35722939        	6.4507596177e-46
0.35827004        	1.4348331226e-45
0.35931009        	3.2772633775e-45
0.36034943        	7.6437709213e-45
0.36138876        	1.8115182960e-44
0.36242809        	4.3399815132e-44
0.36346627        	1.0454509918e-43
0.36450416        	2.5253479046e-43
0.36554205        	6.1035257720e-43
0.36657994        	1.4736229401e-42
0.36761638        	3.5463786270e-42
0.36865265        	8.5124384861e-42
0.36968781        	2.0357648240e-41
0.37072199        	4.8506234185e-41
0.37175454        	1.1506521053e-40
0.37278501        	2.7158963961e-40
0.37381304        	6.3746716797e-40
0.37483825        	1.4870208836e-39
0.37586002        	3.4446714935e-39
0.3768777         	7.9176151184e-39
0.37789092        	1.8048125576e-38
0.37889928        	4.0779782897e-38
0.37990249        	9.1301203409e-38
0.38090046        	2.0251915615e-37
0.38189311        	4.4500642395e-37
0.38288077        	9.6895978860e-37
0.38386332        	2.0907344981e-36
0.38484201        	4.4755088798e-36
0.38581663        	9.5052476915e-36
0.3867881         	2.0048929861e-35
0.38775684        	4.2025033413e-35
0.38872468        	8.7692294829e-35
0.38969207        	1.8227636969e-34
0.39065543        	3.7646544187e-34
0.39161879        	7.7515748285e-34
0.39258214        	1.5914258340e-33
0.3935455         	3.2579688612e-33
0.39450886        	6.6508269578e-33
0.39547222        	1.3537912626e-32
0.39643558        	2.7474801370e-32
0.39739893        	5.5586722838e-32
0.39836229        	1.1209943379e-31
0.39932565        	2.2530840001e-31
0.40028786        	4.5090487892e-31
0.40124638        	8.9679341245e-31
0.40220306        	1.7749729798e-30
0.40315773        	3.4957464263e-30
0.40411027        	6.8505621533e-30
0.40506049        	1.3357812413e-29
0.40600839        	2.5918183772e-29
0.406954          	5.0047290618e-29
0.4078974         	9.6186554275e-29
0.40883881        	1.8402013919e-28
0.40977844        	3.5048623877e-28
0.41071659        	6.6461002185e-28
0.41165357        	1.2548049343e-27
0.41258974        	2.3588543081e-27
0.41352561        	4.4155277991e-27
0.41446121        	8.2281336118e-27
0.41539708        	1.5264380847e-26
0.41633329        	2.8181968588e-26
0.41727008        	5.1768459098e-26
0.41820769        	9.4586062529e-26
0.41914602        	1.7179065091e-25
0.42008529        	3.1000783923e-25
0.42102527        	5.5535837213e-25
0.42196617        	9.8691977908e-25
0.42290784        	1.7378646969e-24
0.42385041        	3.0290758912e-24
0.42479376        	5.2190503306e-24
0.42573797        	8.8777455338e-24
0.42668305        	1.4888944545e-23
0.42762905        	2.4587862122e-23
0.42857601        	3.9936011861e-23
0.42952403        	6.3734748315e-23
0.43047308        	9.9863349625e-23
0.43142326        	1.5355701072e-22
0.43237459        	2.3169299121e-22
0.43332707        	3.4311480538e-22
0.43428066        	4.9902134575e-22
0.43523547        	7.1350202527e-22
0.43619137        	1.0041813166e-21
0.43714839        	1.3932919983e-21
0.43810649        	1.9090488748e-21
0.43906564        	2.5875268255e-21
0.44002573        	3.4750896239e-21
0.44098686        	4.6317350814e-21
0.44194901        	6.1346882165e-21
0.44291211        	8.0829590865e-21
0.44387619        	1.0603026833e-20
0.44484139        	1.3855795682e-20
0.44580778        	1.8044121655e-20
0.44677546        	2.3422954260e-20
0.44774464        	3.0312116715e-20
0.44871557        	3.9112210016e-20
0.44968853        	5.0324782018e-20
0.45066381        	6.4578553410e-20
0.45164184        	8.2666623661e-20
0.45262294        	1.0558727404e-19
0.45360762        	1.3460870730e-19
0.45459628        	1.7133949553e-19
0.45558938        	2.1782840035e-19
0.45658729        	2.7667767367e-19
0.45759026        	3.5119003539e-19
0.45859872        	4.4559824556e-19
0.45961249        	5.6521800540e-19
0.46063169        	7.1679137706e-19
0.46165593        	9.0869881335e-19
0.46268484        	1.1513997583e-18
0.46371795        	1.4578702270e-18
0.46475467        	1.8441116541e-18
0.4657943         	2.3297087603e-18
0.46683629        	2.9386876186e-18
0.46788001        	3.7001838707e-18
0.46892456        	4.6492216312e-18
0.46997079        	5.8300868783e-18
0.4710171         	7.2936146677e-18
0.47206381        	9.1037129368e-18
0.47311207        	1.1340542952e-17
0.47416086        	1.4097200246e-17
0.47521123        	1.7493119325e-17
0.47626362        	2.1674173865e-17
0.47731812        	2.6819002594e-17
0.47837519        	3.3150260183e-17
0.47943564        	4.0946755406e-17
0.48049954        	5.0548442784e-17
0.48156693        	6.2372069256e-17
0.48263834        	7.6934119232e-17
0.48371407        	9.4864117899e-17
0.48479373        	1.1691214452e-16
0.48587705        	1.4398778946e-16
0.48696343        	1.7717520972e-16
0.48805372        	2.1783336907e-16
0.48914471        	2.6742432950e-16
0.49023569        	3.2777893971e-16
0.49133053        	4.0143692420e-16
0.49242793        	4.9121772522e-16
0.49352533        	6.0042119683e-16
0.49462273        	7.3337255842e-16
0.49572013        	8.9556338701e-16
0.49681754        	1.0940189536e-15
0.49791494        	1.3378955426e-15
0.49901234        	1.6392859536e-15
0.50010864        	2.0140751455e-15
0.50119403        	2.4794320714e-15
0.50227811        	3.0676573538e-15
0.50336087        	3.8195423802e-15
0.50444229        	4.7924046902e-15
0.50552228        	6.0672692240e-15
0.50660082        	7.7596337241e-15
0.50767793        	1.0034809372e-14
0.50875344        	1.3129450078e-14
0.5098275         	1.7384413088e-14
0.51090005        	2.3288489865e-14
0.51197106        	3.1541818870e-14
0.51304063        	4.3145815737e-14
0.51410876        	5.9523467163e-14
0.51517547        	8.2688572195e-14
0.51624083        	1.1547842392e-13
0.51730488        	1.6186772317e-13
0.51836762        	2.2740348483e-13
0.51942913        	3.1980582520e-13
0.5204893         	4.4977345894e-13
0.5215481         	6.3212014993e-13
0.52260536        	8.8729147414e-13
0.52366097        	1.2434800867e-12
0.52471468        	1.7394083671e-12
0.52576629        	2.4281551278e-12
0.52681545        	3.3820463237e-12
0.52786176        	4.6991963881e-12
0.52890489        	6.5121582114e-12
0.52994444        	8.9986874687e-12
0.53097995        	1.2395589839e-11
0.53201113        	1.7016994365e-11
0.53303764        	2.3276406816e-11
0.53405925        	3.1715804091e-11
0.53507586        	4.3042168678e-11
0.53608741        	5.8172583514e-11
0.53709405        	7.8295007040e-11
0.53809597        	1.0493987209e-10
0.53909349        	1.4007796143e-10
0.5400871         	1.8624546539e-10
0.54107714        	2.4668337594e-10
0.5420642         	3.2555352044e-10
0.5430487         	4.2816351167e-10
0.54403125        	5.6130836729e-10
0.54501212        	7.3359767194e-10
0.54599177        	9.5600091995e-10
0.5469704         	1.2423625889e-09
0.54794822        	1.6101644799e-09
0.54892534        	2.0813810788e-09
0.54990182        	2.6835258653e-09
0.55087744        	3.4507665635e-09
0.55185214        	4.4256510686e-09
0.55282586        	5.6609004449e-09
0.55379821        	7.2210907062e-09
0.55476924        	9.1862093789e-09
0.5557385         	1.1653198916e-08
0.55670601        	1.4741505660e-08
0.55767158        	1.8595966694e-08
0.55863506        	2.3392481183e-08
0.55959636        	2.9344131856e-08
0.56055549        	3.6708874679e-08
0.56151247        	4.5797655199e-08
0.56246748        	5.6985918498e-08
0.56342062        	7.0722345015e-08
0.56437209        	8.7544559334e-08
0.56532204        	1.0809191158e-07
0.56627082        	1.3312783017e-07
0.56721853        	1.6354791107e-07
0.56816597        	2.0043361040e-07
0.56911341        	2.4503957384e-07
0.57006085        	2.9881428005e-07
0.57100829        	3.6342835029e-07
0.57195573        	4.4079390918e-07
0.57290318        	5.3307917475e-07
0.57385179        	6.4286467182e-07
0.57480091        	7.7282336135e-07
0.57575049        	9.2593322317e-07
0.57670145        	1.1055830055e-06
0.57765241        	1.3148956432e-06
0.57860511        	1.5577488386e-06
0.57955811        	1.8372771583e-06
0.58051169        	2.1568657450e-06
0.581467          	2.5200460897e-06
0.58242231        	2.9288853189e-06
0.58337869        	3.3860440520e-06
0.58433669        	3.8935497358e-06
0.58529469        	4.4516535571e-06
0.58625384        	5.0615602860e-06
0.58721511        	5.7241738334e-06
0.58817638        	6.4379399325e-06
0.58913765        	7.2025467183e-06
0.59010178        	8.0203740036e-06
0.59106746        	8.8909161577e-06
0.59203314        	9.8137548302e-06
0.59299882        	1.0790459257e-05
0.5939645         	1.1823356702e-05
0.59493018        	1.2915494787e-05
0.59589586        	1.4070530339e-05
0.59686154        	1.5292566452e-05
0.59782722        	1.6585968691e-05
0.5987929         	1.7955180607e-05
0.59975858        	1.9404574095e-05
0.60073195        	2.0950953844e-05
0.60170924        	2.2594001413e-05
0.60268838        	2.4335013064e-05
0.60366952        	2.6178760262e-05
0.60465299        	2.8130564741e-05
0.60563908        	3.0196096022e-05
0.60662814        	3.2381768298e-05
0.60762049        	3.4694692530e-05
0.60861651        	3.7143049746e-05
0.6096165         	3.9735821664e-05
0.61062077        	4.2482923413e-05
0.61162957        	4.5394948881e-05
0.61264301        	4.8482568584e-05
0.61366114        	5.1757202010e-05
0.61468391        	5.5230318238e-05
0.61571123        	5.8913220416e-05
0.6167428         	6.2815930520e-05
0.61777822        	6.6947589622e-05
0.61881714        	7.1316868478e-05
0.61985908        	7.5931253612e-05
0.62090351        	8.0797020355e-05
0.62195001        	8.5920394724e-05
0.62299833        	9.1307926950e-05
0.62404812        	9.6965304663e-05
0.62509921        	1.0289924921e-04
0.6261516         	1.0911764283e-04
0.62720534        	1.1562936675e-04
0.62826045        	1.2244383307e-04
0.62931712        	1.2957238419e-04
0.63037569        	1.3702867691e-04
0.63143639        	1.4482685196e-04
0.63249965        	1.5298352796e-04
0.63356568        	1.6151475332e-04
0.63463479        	1.7043777140e-04
0.6357072         	1.7976867207e-04
0.63678293        	1.8952147866e-04
0.63786214        	1.9971032642e-04
0.63894479        	2.1034509598e-04
0.64003066        	2.2143248089e-04
0.64111948        	2.3297708183e-04
0.64221083        	2.4498169281e-04
0.64330419        	2.5744906656e-04
0.64439908        	2.7038358681e-04
0.64549472        	2.8378927718e-04
0.64659141        	2.9768921178e-04
0.64768809        	3.1209746669e-04
0.64878391        	3.2703941470e-04
0.64987938        	3.4257158897e-04
0.65097372        	3.5874690450e-04
0.65206708        	3.7564853230e-04
0.65315931        	3.9337460187e-04
0.6542504         	4.1204640738e-04
0.65534025        	4.3180700483e-04
0.65642891        	4.5282539702e-04
0.65751627        	4.7529122274e-04
0.65860232        	4.9941640247e-04
0.65968709        	5.2543200557e-04
0.66077047        	5.5357745293e-04
0.66185244        	5.8409766403e-04
0.66293302        	6.1723512024e-04
0.66401212        	6.5321313022e-04
0.66508968        	6.9223285737e-04
0.66616574        	7.3446662513e-04
0.66724035        	7.8004986919e-04
0.66831363        	8.2908255863e-04
0.66938564        	8.8162263425e-04
0.67045608        	9.3767207940e-04
0.67152514        	9.9722960787e-04
0.6725932         	1.0602846462e-03
0.67365961        	1.1267533507e-03
0.6747245         	1.1965900810e-03
0.67578827        	1.2697714312e-03
0.67685019        	1.3461993532e-03
0.67791014        	1.4258192137e-03
0.67896818        	1.5085910530e-03
0.68002397        	1.5944435872e-03
0.68107725        	1.6833059601e-03
0.68212745        	1.7750679162e-03
0.68317443        	1.8696394357e-03
0.68421782        	1.9668985869e-03
0.68525744        	2.0667190008e-03
0.68629304        	2.1689591623e-03
0.68732437        	2.2734631304e-03
0.68835113        	2.3800628341e-03
0.68937337        	2.4886252373e-03
0.69039095        	2.5989938035e-03
0.69140442        	2.7110971896e-03
0.69241501        	2.8249473599e-03
0.69341964        	2.9400837466e-03
0.69442428        	3.0570878151e-03
0.69542147        	3.1750000863e-03
0.6964168         	3.2943881415e-03
0.69741214        	3.4154116731e-03
0.69840747        	3.5380176658e-03
0.6994028         	3.6621567029e-03
0.7003955         	3.7874482840e-03
0.70138344        	3.9135621079e-03
0.7023703         	4.0409093453e-03
0.70335616        	4.1694530126e-03
0.70434101        	4.2991428829e-03
0.70532483        	4.4299249799e-03
0.70630752        	4.5617383084e-03
0.707289          	4.6945224871e-03
0.70826908        	4.8282030569e-03
0.70924767        	4.9627198154e-03
0.71022463        	5.0980079521e-03
0.71119981        	5.2340040654e-03
0.71217323        	5.3706687614e-03
0.71314476        	5.5079461203e-03
0.71411442        	5.6457981159e-03
0.71508228        	5.7841961580e-03
0.7160484         	5.9231080839e-03
0.71701283        	6.0624940772e-03
0.71797581        	6.2023356147e-03
0.71893746        	6.3425919100e-03
0.71989803        	6.4832288493e-03
0.72085765        	6.6241857586e-03
0.7218166         	6.7654104166e-03
0.72277514        	6.9068329612e-03
0.72373327        	7.0483291851e-03
0.72469139        	7.1898191441e-03
0.72564951        	7.3311436936e-03
0.72660826        	7.4722146978e-03
0.72756722        	7.6127735250e-03
0.72852669        	7.7526398746e-03
0.72948674        	7.8915796104e-03
0.73044745        	8.0293379531e-03
0.73140885        	8.1656372307e-03
0.73237099        	8.3001865844e-03
0.73333389        	8.4326832732e-03
0.73429756        	8.5628253362e-03
0.735262          	8.6903207218e-03
0.73622727        	8.8149022102e-03
0.73719338        	8.9363280446e-03
0.73816045        	9.0544096794e-03
0.73912847        	9.1689875105e-03
0.74009742        	9.2799566684e-03
0.74106727        	9.3872711242e-03
0.74203816        	9.4909621392e-03
0.74301011        	9.5911059830e-03
0.74398301        	9.6878208272e-03
0.74495688        	9.7812842450e-03
0.74593175        	9.8717107830e-03
0.74690758        	9.9593370818e-03
0.74788448        	1.0044425291e-02
0.7488624         	1.0127223910e-02
0.74984135        	1.0207979813e-02
0.7508214         	1.0286925861e-02
0.75180257        	1.0364266413e-02
0.75278489        	1.0440178864e-02
0.7537687         	1.0514836120e-02
0.75475397        	1.0588357314e-02
0.75574097        	1.0660859070e-02
0.75672984        	1.0732432552e-02
0.75772081        	1.0803161899e-02
0.75871416        	1.0873128817e-02
0.75971016        	1.0942408560e-02
0.76070893        	1.1011068840e-02
0.76171101        	1.1079204815e-02
0.76271651        	1.1146882523e-02
0.76372562        	1.1214171211e-02
0.76473868        	1.1281147296e-02
0.76575569        	1.1347860913e-02
0.76677663        	1.1414353811e-02
0.76780175        	1.1480677500e-02
0.76883071        	1.1546835683e-02
0.76986343        	1.1612826723e-02
0.77089969        	1.1678629844e-02
0.7719391         	1.1744200839e-02
0.7729814         	1.1809500316e-02
0.77402612        	1.1874471543e-02
0.77507315        	1.1939078979e-02
0.77612206        	1.2003265225e-02
0.77717236        	1.2066969243e-02
0.77822432        	1.2130180624e-02
0.77927759        	1.2192853941e-02
0.78033217        	1.2254971456e-02
0.78138806        	1.2316521277e-02
0.78244555        	1.2377513264e-02
0.78350454        	1.2437937596e-02
0.78456534        	1.2497813977e-02
0.78562858        	1.2557179661e-02
0.78669313        	1.2615974600e-02
0.78776135        	1.2674329197e-02
0.78883049        	1.2732085708e-02
0.78990448        	1.2789446371e-02
0.79097847        	1.2846126997e-02
0.79205861        	1.2902423880e-02
0.79313907        	1.2957994976e-02
0.79421953        	1.3012793885e-02
0.79529999        	1.3066800216e-02
0.79638045        	1.3120000334e-02
0.79746092        	1.3172389552e-02
0.79854138        	1.3223977091e-02
0.79962184        	1.3274789422e-02
0.80070845        	1.3325159035e-02
0.80179837        	1.3375011085e-02
0.80288789        	1.3424259237e-02
0.8039768         	1.3473001316e-02
0.80506488        	1.3521351475e-02
0.80615203        	1.3569442472e-02
0.80723807        	1.3617412407e-02
0.80832304        	1.3665409698e-02
0.80940681        	1.3713571782e-02
0.81048936        	1.3762024331e-02
0.81157067        	1.3810869972e-02
0.81265065        	1.3860173502e-02
0.81372937        	1.3909961189e-02
0.81480674        	1.3960197780e-02
0.81588275        	1.4010791816e-02
0.81695738        	1.4061590527e-02
0.81803063        	1.4112381523e-02
0.81910247        	1.4162897740e-02
0.82017297        	1.4212831475e-02
0.8212421         	1.4261843006e-02
0.82230989        	1.4309578452e-02
0.82337637        	1.4355682209e-02
0.82444158        	1.4399813694e-02
0.82550541        	1.4441649417e-02
0.8265679         	1.4480906175e-02
0.82762902        	1.4517332868e-02
0.82868862        	1.4550713749e-02
0.82974661        	1.4580871615e-02
0.83080285        	1.4607662014e-02
0.83185716        	1.4630970460e-02
0.83290931        	1.4650709122e-02
0.83395907        	1.4666813811e-02
0.83500621        	1.4679242190e-02
0.83605053        	1.4687969628e-02
0.83709171        	1.4692990505e-02
0.83812953        	1.4694317258e-02
0.83916389        	1.4691980164e-02
0.84019452        	1.4686025064e-02
0.84122143        	1.4676512747e-02
0.84224455        	1.4663514227e-02
0.84326396        	1.4647108878e-02
0.84427972        	1.4627389506e-02
0.84529198        	1.4604449887e-02
0.84630088        	1.4578386433e-02
0.84730676        	1.4549297488e-02
0.84830986        	1.4517278118e-02
0.84931053        	1.4482420161e-02
0.85030899        	1.4444817814e-02
0.85130544        	1.4404560162e-02
0.85230032        	1.4361729342e-02
0.8532937         	1.4316417867e-02
0.85428586        	1.4268707784e-02
0.85527689        	1.4218689198e-02
0.85626688        	1.4166452914e-02
0.85725587        	1.4112093484e-02
0.85824388        	1.4055706998e-02
0.85923084        	1.3997394094e-02
0.86021668        	1.3937259830e-02
0.86120135        	1.3875404458e-02
0.86218471        	1.3811937081e-02
0.86316673        	1.3746960202e-02
0.86414731        	1.3680578836e-02