# Region type :   sampledSurface planeZ3p
# Faces           : 1018
# Area            : 8.2958402178e-02
# Scale factor    : 1.0000000000e+00
# Time            	areaAverage(p_rgh)
0.0022270965      	6.9000024950e+06
0.0096097579      	6.9013745958e+06
0.013010141       	6.9035130234e+06
0.015529156       	6.9115642888e+06
0.018148069       	6.9296270851e+06
0.020857049       	6.9474747611e+06
0.02347722        	6.9499301468e+06
0.026041769       	6.9481533495e+06
0.028605501       	6.9488860019e+06
0.031064934       	6.9492126650e+06
0.033272514       	6.9498717756e+06
0.035314692       	6.9508385162e+06
0.037336227       	6.9518833627e+06
0.039372081       	6.9527803110e+06
0.041394097       	6.9535664812e+06
0.043402323       	6.9542552829e+06
0.045418211       	6.9545417263e+06
0.047440984       	6.9543382340e+06
0.049404863       	6.9539185286e+06
0.051270606       	6.9535266718e+06
0.053080282       	6.9531293317e+06
0.05487189        	6.9523636858e+06
0.056648489       	6.9505926051e+06
0.058411791       	6.9471335611e+06
0.060178796       	6.9413345339e+06
0.061961981       	6.9329997277e+06
0.063737396       	6.9232710301e+06
0.06546678        	6.9145424141e+06
0.067149859       	6.9088707794e+06
0.068799377       	6.9067095428e+06
0.070418288       	6.9067671591e+06
0.07201351        	6.9073203483e+06
0.073605298       	6.9075396679e+06
0.075207256       	6.9074449401e+06
0.076810873       	6.9072364885e+06
0.078401693       	6.9069702007e+06
0.079973704       	6.9066267864e+06
0.081525887       	6.9061784392e+06
0.08305684        	6.9055990877e+06
0.084573195       	6.9049114253e+06
0.086091001       	6.9041413141e+06
0.08761111        	6.9031969994e+06
0.08913122        	6.9019004925e+06
0.090640976       	6.9001043275e+06
0.092133166       	6.8976216116e+06
0.093607826       	6.8941643613e+06
0.095066271       	6.8894908085e+06
0.096517367       	6.8836287342e+06
0.097968464       	6.8770252985e+06
0.099419561       	6.8704809778e+06
0.10086877        	6.8648950015e+06
0.10230429        	6.8609620574e+06
0.10372716        	6.8588004070e+06
0.10514173        	6.8579932635e+06
0.1065501         	6.8578705791e+06
0.1079494         	6.8578822831e+06
0.1093265         	6.8577828056e+06
0.11066394        	6.8575639645e+06
0.11195448        	6.8572922401e+06
0.11319772        	6.8569932915e+06
0.11438549        	6.8566474563e+06
0.11550788        	6.8562592892e+06
0.11655434        	6.8558994908e+06
0.11751382        	6.8556569210e+06
0.11839213        	6.8555698552e+06
0.11920705        	6.8556184751e+06
0.11997595        	6.8557633777e+06
0.12071176        	6.8560030439e+06
0.12142366        	6.8563318938e+06
0.12211744        	6.8567029169e+06
0.12279585        	6.8570680547e+06
0.12345995        	6.8573923294e+06
0.12411069        	6.8576603041e+06
0.12474941        	6.8578788652e+06
0.12537756        	6.8580600104e+06
0.12599666        	6.8582180110e+06
0.12660865        	6.8583750856e+06
0.12721581        	6.8585570350e+06
0.12782027        	6.8587834300e+06
0.1284235         	6.8590615104e+06
0.1290265         	6.8593895401e+06
0.12962963        	6.8597623048e+06
0.1302331         	6.8601719357e+06
0.13083662        	6.8606063488e+06
0.13143976        	6.8610546769e+06
0.13204176        	6.8615160514e+06
0.13264225        	6.8620022387e+06
0.13324123        	6.8625333470e+06
0.13383893        	6.8631339558e+06
0.13443587        	6.8638312422e+06
0.13503282        	6.8646533487e+06
0.13563073        	6.8656267866e+06
0.13623037        	6.8667746018e+06
0.13683211        	6.8681148436e+06
0.13743596        	6.8696594564e+06
0.13804175        	6.8714139842e+06
0.13864917        	6.8733770737e+06
0.13925774        	6.8755392978e+06
0.13986691        	6.8778842725e+06
0.14047644        	6.8803924679e+06
0.14108623        	6.8830407874e+06
0.14169673        	6.8858016269e+06
0.14230845        	6.8886402785e+06
0.14292208        	6.8915155118e+06
0.1435384         	6.8943784036e+06
0.14415801        	6.8971708217e+06
0.14478124        	6.8998293623e+06
0.14540791        	6.9022920123e+06
0.14603771        	6.9045041473e+06
0.14667028        	6.9064190335e+06
0.14730514        	6.9079991694e+06
0.14794187        	6.9092247012e+06
0.14858019        	6.9101038311e+06
0.1492202         	6.9106760748e+06
0.14986238        	6.9110038674e+06
0.15050729        	6.9111586295e+06
0.15115545        	6.9112094649e+06
0.15180719        	6.9112160662e+06
0.15246262        	6.9112229955e+06
0.15312143        	6.9112553973e+06
0.15378298        	6.9113192418e+06
0.15444654        	6.9114062496e+06
0.15511149        	6.9115006030e+06
0.15577729        	6.9115856469e+06
0.15644368        	6.9116500149e+06
0.15711093        	6.9116913340e+06
0.15777953        	6.9117163378e+06
0.15845013        	6.9117377485e+06
0.1591232         	6.9117684808e+06
0.159799          	6.9118150187e+06
0.16047756        	6.9118731383e+06
0.16115846        	6.9119281997e+06
0.16184106        	6.9119600210e+06
0.16252471        	6.9119495459e+06
0.163209          	6.9118847925e+06
0.16389358        	6.9117651530e+06
0.16457878        	6.9116043073e+06
0.16526494        	6.9114309938e+06
0.16595274        	6.9112870501e+06
0.16664276        	6.9112241263e+06
0.16733523        	6.9112978390e+06
0.1680302         	6.9115586465e+06
0.1687274         	6.9120428342e+06
0.16942615        	6.9127689550e+06
0.17012595        	6.9137415217e+06
0.17082639        	6.9149568548e+06
0.17152727        	6.9164075863e+06
0.17222865        	6.9180871709e+06
0.17293106        	6.9199913443e+06
0.17363485        	6.9221135552e+06
0.17434051        	6.9244389050e+06
0.17504818        	6.9269341104e+06
0.1757576         	6.9295419012e+06
0.17646837        	6.9321812640e+06
0.17717989        	6.9347534229e+06
0.17789168        	6.9371546630e+06
0.17860256        	6.9392895080e+06
0.17931344        	6.9410911874e+06
0.18002369        	6.9425191003e+06
0.18073416        	6.9435697805e+06
0.18144508        	6.9442689456e+06
0.18215703        	6.9446634128e+06
0.18287012        	6.9448103080e+06
0.18358402        	6.9447702765e+06
0.18429932        	6.9445969492e+06
0.18501461        	6.9443314874e+06
0.1857299         	6.9439992472e+06
0.18644519        	6.9436121313e+06
0.18716049        	6.9431744640e+06
0.18787578        	6.9426887224e+06
0.18859107        	6.9421609874e+06
0.18930786        	6.9416025602e+06
0.19002546        	6.9410326825e+06
0.19074426        	6.9404742611e+06
0.19146455        	6.9399511626e+06
0.19218484        	6.9394849294e+06
0.19290514        	6.9390859536e+06
0.19362543        	6.9387506595e+06
0.19434572        	6.9384610526e+06
0.19506601        	6.9381896999e+06
0.1957863         	6.9379075525e+06
0.19650659        	6.9375918643e+06
0.19722688        	6.9372318691e+06
0.19794717        	6.9368292988e+06
0.19866746        	6.9363963172e+06
0.19938775        	6.9359518082e+06
0.20010846        	6.9355166286e+06
0.20083175        	6.9351077719e+06
0.20155508        	6.9347381823e+06
0.20227846        	6.9344094780e+06
0.20300213        	6.9341136125e+06
0.20372631        	6.9338349400e+06
0.20445132        	6.9335544828e+06
0.2051773         	6.9332547716e+06
0.20590438        	6.9329234067e+06
0.20663249        	6.9325545382e+06
0.20736141        	6.9321472046e+06
0.20809096        	6.9317025471e+06
0.20882092        	6.9312200550e+06
0.20955129        	6.9306936320e+06
0.21028204        	6.9301091753e+06
0.21101338        	6.9294439428e+06
0.21174546        	6.9286683155e+06
0.21247843        	6.9277489050e+06
0.21321233        	6.9266524155e+06
0.21394707        	6.9253491032e+06
0.21468243        	6.9238151121e+06
0.21541815        	6.9220341195e+06
0.21615395        	6.9199984935e+06
0.21688944        	6.9177110921e+06
0.21762465        	6.9151852536e+06
0.21835946        	6.9124483333e+06
0.2190939         	6.9095420607e+06
0.21982799        	6.9065236323e+06
0.22056166        	6.9034643969e+06
0.22129477        	6.9004462959e+06
0.22202712        	6.8975554079e+06
0.22275845        	6.8948741242e+06
0.22348854        	6.8924729487e+06
0.22421725        	6.8904032923e+06
0.22494458        	6.8886931571e+06
0.22567063        	6.8873456363e+06
0.22639563        	6.8863399934e+06
0.22711985        	6.8856357875e+06
0.22784352        	6.8851785402e+06
0.22856689        	6.8849066668e+06
0.22929026        	6.8847595587e+06
0.23001364        	6.8846848878e+06
0.23073703        	6.8846429696e+06
0.23146078        	6.8846087508e+06
0.23218487        	6.8845708592e+06
0.23290955        	6.8845280870e+06
0.23363493        	6.8844850104e+06
0.23436115        	6.8844479657e+06
0.23508837        	6.8844226246e+06
0.23581657        	6.8844124514e+06
0.23654581        	6.8844189122e+06
0.2372759         	6.8844425592e+06
0.23800674        	6.8844843920e+06
0.23873814        	6.8845464322e+06
0.23947004        	6.8846310293e+06
0.24020236        	6.8847388319e+06
0.24093502        	6.8848660718e+06
0.24166802        	6.8850020388e+06
0.24240136        	6.8851276430e+06
0.2431351         	6.8852154833e+06
0.24386913        	6.8852316589e+06
0.24460335        	6.8851389336e+06
0.24533756        	6.8849007715e+06
0.24607178        	6.8844851304e+06
0.2468055         	6.8838679321e+06
0.24753919        	6.8830335337e+06
0.24827239        	6.8819762266e+06
0.2490056         	6.8806972719e+06
0.2497387         	6.8792058657e+06
0.25047137        	6.8775180508e+06
0.25120458        	6.8756530183e+06
0.2519378         	6.8736408236e+06
0.25267101        	6.8715189459e+06
0.25340479        	6.8693325529e+06
0.25413887        	6.8671383838e+06
0.25487347        	6.8649987270e+06
0.25560876        	6.8629788527e+06
0.25634497        	6.8611405873e+06
0.25708214        	6.8595366234e+06
0.25782048        	6.8582041044e+06
0.25855999        	6.8571611477e+06
0.25930062        	6.8564053722e+06
0.26004234        	6.8559161763e+06
0.26078508        	6.8556601399e+06
0.26152874        	6.8555969807e+06
0.26227319        	6.8556857255e+06
0.26301842        	6.8558900788e+06
0.26376443        	6.8561810383e+06
0.26451125        	6.8565367660e+06
0.26525894        	6.8569404549e+06
0.26600751        	6.8573775973e+06
0.26675707        	6.8578339791e+06
0.26750765        	6.8582946279e+06
0.26825923        	6.8587447126e+06
0.26901178        	6.8591718147e+06
0.26976539        	6.8595687966e+06
0.27052013        	6.8599360786e+06
0.27127627        	6.8602823895e+06
0.27203366        	6.8606229840e+06
0.27279233        	6.8609763765e+06
0.2735526         	6.8613599180e+06
0.27431423        	6.8617849118e+06
0.27507716        	6.8622540090e+06
0.27584138        	6.8627608274e+06
0.27660675        	6.8632919904e+06
0.27737319        	6.8638307519e+06
0.27814053        	6.8643612853e+06
0.27890888        	6.8648724151e+06
0.27967829        	6.8653594582e+06
0.28044835        	6.8658241368e+06
0.28121962        	6.8662740703e+06
0.28199154        	6.8667194238e+06
0.28276443        	6.8671715340e+06
0.28353769        	6.8676405636e+06
0.28431239        	6.8681367198e+06
0.28508708        	6.8686689829e+06
0.2858623         	6.8692495606e+06
0.2866391         	6.8698950687e+06
0.2874159         	6.8706246722e+06
0.28819307        	6.8714640909e+06
0.28897241        	6.8724440981e+06
0.28975174        	6.8735917578e+06
0.29053171        	6.8749352044e+06
0.29131422        	6.8764999736e+06
0.29209672        	6.8782951187e+06
0.29288048        	6.8803267861e+06
0.29366717        	6.8825910538e+06
0.29445385        	6.8850576351e+06
0.29524328        	6.8876991778e+06
0.29603607        	6.8904683748e+06
0.29682886        	6.8932918589e+06
0.29762164        	6.8960985129e+06
0.29841443        	6.8988135236e+06
0.29920721        	6.9013648746e+06
0.3               	6.9036884505e+06
0.30080897        	6.9057731489e+06
0.30162107        	6.9075431231e+06
0.30243619        	6.9089849222e+06
0.3032542         	6.9101087260e+06
0.30407491        	6.9109465595e+06
0.30489795        	6.9115447708e+06
0.30572295        	6.9119584014e+06
0.30654953        	6.9122425677e+06
0.30737729        	6.9124446644e+06
0.30820591        	6.9125996473e+06
0.30903503        	6.9127291865e+06
0.30986451        	6.9128431662e+06
0.31069411        	6.9129430918e+06
0.3115237         	6.9130255786e+06
0.3123533         	6.9130852277e+06
0.31318299        	6.9131172832e+06
0.31401298        	6.9131187202e+06
0.31484297        	6.9130883890e+06
0.31567325        	6.9130278831e+06
0.31650383        	6.9129428195e+06
0.31733485        	6.9128443353e+06
0.31816636        	6.9127508057e+06
0.3189986         	6.9126889045e+06
0.31983158        	6.9126932925e+06
0.32066544        	6.9128047979e+06
0.32150023        	6.9130672672e+06
0.32233611        	6.9135235418e+06
0.32317306        	6.9142111766e+06
0.32401123        	6.9151590575e+06
0.32485052        	6.9163840208e+06
0.32569102        	6.9178894029e+06
0.3265326         	6.9196631440e+06
0.32737512        	6.9216775578e+06
0.32821837        	6.9238880519e+06
0.32906212        	6.9262341594e+06
0.32990611        	6.9286430909e+06
0.33075011        	6.9310329121e+06
0.33159375        	6.9333172645e+06
0.33243694        	6.9354155694e+06
0.33327953        	6.9372617402e+06
0.33412132        	6.9388106413e+06
0.33496236        	6.9400408675e+06
0.33580253        	6.9409538691e+06
0.33664195        	6.9415720294e+06
0.33748063        	6.9419312888e+06
0.33831855        	6.9420744691e+06
0.33915585        	6.9420453647e+06
0.33999251        	6.9418842051e+06
0.34082855        	6.9416254921e+06
0.34166398        	6.9412975641e+06
0.34249872        	6.9409234083e+06
0.34333271        	6.9405217811e+06
0.3441658         	6.9401077262e+06
0.34499803        	6.9396922193e+06
0.34582919        	6.9392818177e+06
0.34665923        	6.9388778409e+06
0.34748811        	6.9384764687e+06
0.34831578        	6.9380698412e+06
0.3491422         	6.9376481637e+06
0.34996737        	6.9372024216e+06
0.35079132        	6.9367270900e+06
0.35161414        	6.9362218283e+06
0.35243594        	6.9356917987e+06
0.35325686        	6.9351464999e+06
0.35407688        	6.9345976737e+06
0.3548962         	6.9340562455e+06
0.35571482        	6.9335300345e+06
0.35653291        	6.9330218977e+06
0.35735072        	6.9325295334e+06
0.3581678         	6.9320467993e+06
0.35898483        	6.9315635747e+06
0.3598015         	6.9310680447e+06
0.36061771        	6.9305465052e+06
0.36143393        	6.9299832542e+06
0.36225014        	6.9293609484e+06
0.363066          	6.9286599873e+06
0.36388132        	6.9278579754e+06
0.36469664        	6.9269294025e+06
0.36551172        	6.9258485658e+06
0.36632608        	6.9245913613e+06
0.36714009        	6.9231365210e+06
0.36795346        	6.9214707522e+06
0.36876584        	6.9195909360e+06
0.36957727        	6.9175051613e+06
0.37038752        	6.9152355777e+06
0.37119632        	6.9128179562e+06
0.37200364        	6.9102995657e+06
0.37280923        	6.9077379243e+06
0.37361297        	6.9051958592e+06
0.37441463        	6.9027378185e+06
0.37521429        	6.9004234602e+06
0.37601182        	6.8983041195e+06
0.37680711        	6.8964181904e+06
0.37760049        	6.8947876275e+06
0.37839177        	6.8934193989e+06
0.37918125        	6.8923043109e+06
0.37996915        	6.8914208078e+06
0.38075582        	6.8907383220e+06
0.3815413         	6.8902216928e+06
0.38232584        	6.8898345174e+06
0.38310962        	6.8895431489e+06
0.38389339        	6.8893191981e+06
0.38467717        	6.8891414179e+06
0.38546095        	6.8889955207e+06
0.38624472        	6.8888736941e+06
0.3870285         	6.8887736030e+06
0.38781228        	6.8886964987e+06
0.38859605        	6.8886452402e+06
0.38937983        	6.8886228908e+06
0.3901636         	6.8886311963e+06
0.39094738        	6.8886696066e+06
0.39173116        	6.8887343483e+06
0.39251493        	6.8888177200e+06
0.39329871        	6.8889075613e+06
0.39408249        	6.8889870211e+06
0.39486626        	6.8890347509e+06
0.39565004        	6.8890254863e+06
0.39643382        	6.8889312081e+06
0.39721759        	6.8887228272e+06
0.39800137        	6.8883723133e+06
0.39878515        	6.8878549038e+06
0.39956892        	6.8871511035e+06
0.40035197        	6.8862492089e+06
0.40113376        	6.8851460267e+06
0.40191512        	6.8838453282e+06
0.40269607        	6.8823607945e+06
0.40347667        	6.8807143772e+06
0.40425697        	6.8789364242e+06
0.40503719        	6.8770640414e+06
0.40581718        	6.8751411866e+06
0.40659745        	6.8732146275e+06
0.40737785        	6.8713348237e+06
0.40815863        	6.8695505855e+06
0.40893982        	6.8679075083e+06
0.40972158        	6.8664437585e+06
0.41050394        	6.8651879732e+06
0.41128695        	6.8641572497e+06
0.41207062        	6.8633566877e+06
0.41285495        	6.8627795919e+06
0.41363992        	6.8624088085e+06
0.41442553        	6.8622195804e+06
0.41521174        	6.8621831110e+06
0.41599853        	6.8622688240e+06
0.41678596        	6.8624467378e+06
0.41757405        	6.8626892377e+06
0.4183628         	6.8629723467e+06
0.41915225        	6.8632766530e+06
0.41994249        	6.8635876341e+06
0.42073356        	6.8638958442e+06
0.42152551        	6.8641970358e+06
0.42231845        	6.8644916876e+06
0.42311237        	6.8647841722e+06
0.42390735        	6.8650815581e+06
0.42470334        	6.8653921554e+06
0.4255004         	6.8657239112e+06
0.42629847        	6.8660828073e+06
0.42709752        	6.8664718141e+06
0.4278975         	6.8668904216e+06
0.42869835        	6.8673348089e+06
0.42949995        	6.8677988827e+06
0.43030222        	6.8682758095e+06
0.43110508        	6.8687594927e+06
0.43190847        	6.8692460699e+06
0.43271234        	6.8697348248e+06
0.43351662        	6.8702286493e+06
0.43432114        	6.8707339290e+06
0.43512602        	6.8712605641e+06
0.43593106        	6.8718211550e+06
0.43673645        	6.8724311023e+06
0.43754185        	6.8731074116e+06
0.43834773        	6.8738692496e+06
0.43915364        	6.8747356785e+06
0.43996006        	6.8757266525e+06
0.44076676        	6.8768601778e+06
0.44157392        	6.8781518998e+06
0.44238166        	6.8796129338e+06
0.44319009        	6.8812480304e+06
0.4439994         	6.8830545062e+06
0.44480975        	6.8850206058e+06
0.44562128        	6.8871252495e+06
0.44643418        	6.8893380921e+06
0.44724869        	6.8916206169e+06
0.44806487        	6.8939271679e+06
0.44888298        	6.8962085854e+06
0.44970309        	6.8984144812e+06
0.45052531        	6.9004972686e+06
0.45134969        	6.9024155052e+06
0.45217624        	6.9041372771e+06
0.45300493        	6.9056424543e+06
0.4538355         	6.9069232962e+06
0.45466793        	6.9079851044e+06
0.4555019         	6.9088436204e+06
0.4563372         	6.9095228231e+06
0.45717353        	6.9100514015e+06
0.45801072        	6.9104593438e+06
0.45884817        	6.9107740984e+06
0.45968629        	6.9110188638e+06
0.46052441        	6.9112105794e+06
0.46136244        	6.9113605981e+06
0.46219966        	6.9114750768e+06
0.46303688        	6.9115562480e+06
0.46387409        	6.9116038427e+06
0.46471034        	6.9116174146e+06
0.46554659        	6.9115982111e+06
0.46638284        	6.9115503806e+06
0.46721908        	6.9114820432e+06
0.46805533        	6.9114061398e+06
0.46889158        	6.9113405644e+06
0.46972783        	6.9113080341e+06
0.47056408        	6.9113353683e+06
0.47140032        	6.9114521068e+06
0.4722378         	6.9116892737e+06
0.47307527        	6.9120763572e+06
0.47391301        	6.9126395888e+06
0.47475182        	6.9134001224e+06
0.47559063        	6.9143693629e+06
0.47643017        	6.9155505522e+06
0.47727045        	6.9169353162e+06
0.47811073        	6.9185020441e+06
0.47895101        	6.9202183895e+06
0.47979129        	6.9220417982e+06
0.48063157        	6.9239227216e+06
0.48147185        	6.9258064052e+06
0.48231213        	6.9276359337e+06
0.48315241        	6.9293564035e+06
0.4839914         	6.9309178394e+06
0.48482955        	6.9322847399e+06
0.4856677         	6.9334341514e+06
0.48650495        	6.9343539433e+06
0.48734056        	6.9350457816e+06
0.48817617        	6.9355241943e+06
0.48901177        	6.9358110922e+06
0.48984542        	6.9359339207e+06
0.49067776        	6.9359239406e+06
0.49151011        	6.9358119912e+06
0.49234245        	6.9356263096e+06
0.49317479        	6.9353912182e+06
0.49400685        	6.9351263860e+06
0.49483349        	6.9348485309e+06
0.49566013        	6.9345651703e+06
0.49648677        	6.9342801939e+06
0.49731342        	6.9339938365e+06
0.49814006        	6.9337029206e+06
0.4989667         	6.9334022795e+06
0.49979334        	6.9330865651e+06
0.50061608        	6.9327521931e+06
0.50143664        	6.9323950941e+06
0.50225626        	6.9320134659e+06
0.50307495        	6.9316084666e+06
0.50389286        	6.9311828146e+06
0.50471008        	6.9307401877e+06
0.50552671        	6.9302848272e+06
0.50634277        	6.9298197382e+06
0.5071584         	6.9293452710e+06
0.50797368        	6.9288591970e+06
0.50878866        	6.9283563308e+06
0.50960341        	6.9278285098e+06
0.51041787        	6.9272646488e+06
0.51123225        	6.9266507055e+06
0.51204636        	6.9259707517e+06
0.51286036        	6.9252070857e+06
0.51367409        	6.9243419044e+06
0.51448762        	6.9233577396e+06
0.5153008         	6.9222392608e+06
0.51611356        	6.9209742631e+06
0.51692582        	6.9195551705e+06
0.51773743        	6.9179805503e+06
0.51854829        	6.9162558914e+06
0.51935827        	6.9143947259e+06
0.52016715        	6.9124188103e+06
0.52097483        	6.9103571587e+06
0.52178119        	6.9082449417e+06
0.52258607        	6.9061217852e+06
0.52338937        	6.9040291830e+06
0.52419102        	6.9020077943e+06
0.52499099        	6.9000946965e+06
0.52578925        	6.8983207132e+06
0.5265858         	6.8967087023e+06
0.52738075        	6.8952724030e+06
0.52817419        	6.8940168108e+06
0.52896622        	6.8929386449e+06
0.52975704        	6.8920277296e+06
0.5305468         	6.8912687831e+06
0.53133573        	6.8906433887e+06
0.5321239         	6.8901322166e+06
0.5329116         	6.8897164256e+06
0.53369903        	6.8893794002e+06
0.53448619        	6.8891076517e+06
0.53527314        	6.8888912373e+06
0.53606014        	6.8887234897e+06
0.53684758        	6.8886003567e+06
0.53763502        	6.8885197938e+06
0.53842245        	6.8884804705e+06
0.53921032        	6.8884807780e+06
0.53999826        	6.8885177447e+06
0.5407862         	6.8885860735e+06
0.54157414        	6.8886775764e+06
0.54236208        	6.8887809720e+06
0.54315003        	6.8888817378e+06
0.54393797        	6.8889622574e+06
0.54472591        	6.8890023935e+06
0.54551332        	6.8889804370e+06
0.5463007         	6.8888741585e+06
0.54708773        	6.8886621745e+06
0.54787453        	6.8883252917e+06
0.54866094        	6.8878480006e+06
0.54944714        	6.8872193680e+06
0.55023286        	6.8864345331e+06
0.55101845        	6.8854943277e+06
0.55180362        	6.8844070501e+06
0.55258858        	6.8831870749e+06
0.55337354        	6.8818552493e+06
0.5541585         	6.8804381379e+06
0.55494345        	6.8789670037e+06
0.55572841        	6.8774763410e+06
0.55651337        	6.8760021276e+06
0.55729833        	6.8745801602e+06
0.55808383        	6.8732428943e+06
0.55886951        	6.8720206439e+06
0.55965583        	6.8709366879e+06
0.56044246        	6.8700081376e+06
0.56122968        	6.8692436139e+06
0.5620175         	6.8686445003e+06
0.56280572        	6.8682049496e+06
0.56359457        	6.8679124763e+06
0.56438402        	6.8677496962e+06
0.56517387        	6.8676959559e+06
0.56596447        	6.8677296674e+06
0.56675568        	6.8678299443e+06
0.56754736        	6.8679777577e+06
0.56833985        	6.8681571597e+06
0.5691331         	6.8683558021e+06
0.569927          	6.8685652899e+06
0.57072164        	6.8687812006e+06
0.57151725        	6.8690027172e+06
0.57231375        	6.8692317802e+06
0.57311112        	6.8694723460e+06
0.57390925        	6.8697292966e+06
0.57470836        	6.8700076694e+06
0.57550848        	6.8703117506e+06
0.57630912        	6.8706442969e+06
0.57711085        	6.8710069256e+06
0.577913          	6.8713992374e+06
0.57871616        	6.8718203300e+06
0.57951933        	6.8722678780e+06
0.58032361        	6.8727409652e+06
0.58112837        	6.8732386688e+06
0.58193313        	6.8737616544e+06
0.58273789        	6.8743130758e+06
0.58354265        	6.8748982999e+06
0.58434782        	6.8755253382e+06
0.58515463        	6.8762052493e+06
0.58596145        	6.8769483432e+06
0.58676826        	6.8777676034e+06
0.58757507        	6.8786763140e+06
0.58838189        	6.8796869620e+06
0.5891887         	6.8808104490e+06
0.58999551        	6.8820547133e+06
0.59080268        	6.8834247172e+06
0.59161302        	6.8849258763e+06
0.59242335        	6.8865470851e+06
0.59323369        	6.8882768162e+06
0.59404403        	6.8900973860e+06
0.59485561        	6.8919886174e+06
0.59567218        	6.8939321920e+06
0.59648875        	6.8958848165e+06
0.59730532        	6.8978136350e+06
0.59812189        	6.8996856512e+06
0.59893846        	6.9014704397e+06
0.59975503        	6.9031414911e+06
0.60057739        	6.9046881405e+06
0.60140368        	6.9060900760e+06
0.60223163        	6.9073347299e+06
0.60306111        	6.9084202139e+06
0.60389194        	6.9093512899e+06
0.60472392        	6.9101378445e+06
0.60555686        	6.9107930670e+06
0.60639057        	6.9113320484e+06
0.60722481        	6.9117698589e+06
0.60805949        	6.9121201145e+06
0.60889446        	6.9123943514e+06
0.60972953        	6.9126013977e+06
0.61056459        	6.9127477012e+06
0.61139966        	6.9128379894e+06
0.61223472        	6.9128759794e+06
0.61306945        	6.9128657601e+06
0.61390411        	6.9128128890e+06
0.61473878        	6.9127250762e+06
0.61557345        	6.9126127748e+06
0.61640811        	6.9124896952e+06
0.61724305        	6.9123731296e+06
0.61807814        	6.9122836038e+06
0.6189134         	6.9122438795e+06
0.61974891        	6.9122779465e+06
0.62058479        	6.9124098085e+06
0.62142096        	6.9126617926e+06
0.62225747        	6.9130530447e+06
0.62309431        	6.9135977972e+06
0.62393161        	6.9143040455e+06
0.62476923        	6.9151720439e+06
0.62560699        	6.9161935830e+06
0.62644512        	6.9173526300e+06
0.62728336        	6.9186250670e+06
0.62812159        	6.9199801752e+06
0.62895982        	6.9213821360e+06
0.62979795        	6.9227913470e+06
0.63063569        	6.9241674931e+06
0.63147311        	6.9254733327e+06
0.63231016        	6.9266759314e+06
0.63314674        	6.9277486628e+06
0.63398277        	6.9286727624e+06
0.63481824        	6.9294379608e+06
0.63565313        	6.9300419671e+06
0.63648739        	6.9304900517e+06
0.637321          	6.9307940549e+06
0.63815389        	6.9309704049e+06
0.63898607        	6.9310384802e+06
0.63981758        	6.9310182120e+06
0.64064834        	6.9309284958e+06
0.64147823        	6.9307861793e+06
0.64230735        	6.9306051109e+06
0.64313552        	6.9303957627e+06
0.64396285        	6.9301650543e+06
0.64478911        	6.9299166818e+06
0.64561445        	6.9296514889e+06
0.64643875        	6.9293683979e+06
0.647262          	6.9290651527e+06
0.64808433        	6.9287390706e+06
0.64890555        	6.9283878408e+06
0.64972592        	6.9280097605e+06
0.65054531        	6.9276043676e+06
0.65136386        	6.9271721354e+06
0.65218165        	6.9267142807e+06
0.65299874        	6.9262322479e+06
0.65381526        	6.9257269835e+06
0.65463125        	6.9251985659e+06
0.6554466         	6.9246458810e+06
0.65626178        	6.9240658785e+06
0.65707627        	6.9234543615e+06
0.65789076        	6.9228041890e+06
0.6587047         	6.9221072529e+06
0.6595184         	6.9213529450e+06
0.6603321         	6.9205295526e+06
0.66114505        	6.9196261288e+06
0.66195792        	6.9186308050e+06
0.6627703         	6.9175344719e+06
0.66358229        	6.9163300097e+06
0.6643936         	6.9150143848e+06
0.66520439        	6.9135880325e+06
0.66601444        	6.9120569782e+06
0.66682357        	6.9104322705e+06
0.66763172        	6.9087297868e+06
0.66843875        	6.9069702049e+06
0.6692446         	6.9051777966e+06
0.67004923        	6.9033792821e+06
0.67085257        	6.9016024792e+06
0.67165448        	6.8998747579e+06
0.67245485        	6.8982211727e+06
0.67325389        	6.8966627358e+06
0.67405156        	6.8952165851e+06
0.67484788        	6.8938947481e+06
0.67564289        	6.8927041843e+06
0.67643666        	6.8916469805e+06
0.67722942        	6.8907207319e+06
0.67802144        	6.8899195411e+06
0.67881232        	6.8892355271e+06
0.6796029         	6.8886583303e+06
0.68039317        	6.8881780392e+06
0.68118218        	6.8877853635e+06
0.68197119        	6.8874708018e+06
0.68276019        	6.8872267641e+06
0.6835492         	6.8870469394e+06
0.68433821        	6.8869260663e+06
0.68512721        	6.8868595270e+06
0.68591622        	6.8868430137e+06
0.68670523        	6.8868715836e+06
0.68749424        	6.8869392929e+06
0.68828324        	6.8870387885e+06
0.68907225        	6.8871608742e+06
0.68986126        	6.8872943164e+06
0.69065026        	6.8874258334e+06
0.69143927        	6.8875403111e+06
0.69222828        	6.8876212176e+06
0.69301729        	6.8876512811e+06
0.69380629        	6.8876133204e+06
0.6945953         	6.8874911649e+06
0.69538431        	6.8872706324e+06
0.69617332        	6.8869403805e+06
0.69696232        	6.8864927038e+06
0.69775133        	6.8859243220e+06
0.69854034        	6.8852368067e+06
0.69932934        	6.8844368889e+06
0.7001183         	6.8835363395e+06
0.70090694        	6.8825515958e+06
0.70169558        	6.8815024161e+06
0.70248423        	6.8804120023e+06
0.70327293        	6.8793052759e+06
0.7040619         	6.8782078258e+06
0.70485111        	6.8771449337e+06
0.70564063        	6.8761400184e+06
0.70643053        	6.8752140630e+06
0.70722089        	6.8743839222e+06
0.70801168        	6.8736618149e+06
0.70880296        	6.8730550662e+06
0.70959478        	6.8725662948e+06
0.71038715        	6.8721935876e+06
0.71118006        	6.8719307910e+06