# Region type :   sampledSurface planeZ6p
# Faces           : 654
# Area            : 8.2959466294e-02
# Scale factor    : 1.0000000000e+00
# Time            	areaAverage(p_rgh)
0.0022358089      	6.8999999975e+06
0.01108658        	6.8999995713e+06
0.02050321        	6.9001810568e+06
0.028212545       	6.9036763333e+06
0.034384994       	6.9169191010e+06
0.039952598       	6.9351476800e+06
0.045143099       	6.9290173025e+06
0.049837234       	6.9104803353e+06
0.054418945       	6.9027513314e+06
0.058905116       	6.9034522125e+06
0.063195479       	6.9025766600e+06
0.067309612       	6.9010635041e+06
0.071209283       	6.9002687390e+06
0.074872269       	6.8997739288e+06
0.078380861       	6.8996644088e+06
0.081825014       	6.8999151918e+06
0.085235011       	6.9001996418e+06
0.088586129       	6.9003882441e+06
0.091871681       	6.9006848534e+06
0.095108664       	6.9010883395e+06
0.098264365       	6.9012073535e+06
0.10139702        	6.9006315531e+06
0.10448676        	6.8991424061e+06
0.10757281        	6.8965082843e+06
0.1106578         	6.8923851453e+06
0.11373802        	6.8866967781e+06
0.1168172         	6.8802860779e+06
0.11990702        	6.8751674313e+06
0.12301363        	6.8738149697e+06
0.12613724        	6.8774226066e+06
0.12927376        	6.8844448714e+06
0.13241715        	6.8913746730e+06
0.13556787        	6.8955468384e+06
0.13872293        	6.8969324572e+06
0.14189899        	6.8972496290e+06
0.14511484        	6.8978951714e+06
0.14839293        	6.8990163188e+06
0.1517551         	6.9001077726e+06
0.1552117         	6.9008264479e+06
0.15875193        	6.9010934336e+06
0.1623481         	6.9009502874e+06
0.16598851        	6.9005366739e+06
0.16968364        	6.8999556003e+06
0.17345618        	6.8992451854e+06
0.17731237        	6.8987096442e+06
0.18124596        	6.8991004623e+06
0.18523106        	6.9011965260e+06
0.18922267        	6.9053265009e+06
0.19321427        	6.9112536981e+06
0.19720588        	6.9176706880e+06
0.20116241        	6.9218285625e+06
0.20500912        	6.9213258209e+06
0.20882157        	6.9165102543e+06
0.21261224        	6.9103201494e+06
0.21637508        	6.9058130216e+06
0.22009389        	6.9037156396e+06
0.22375008        	6.9027649567e+06
0.22733193        	6.9017294782e+06
0.23083563        	6.9004149345e+06
0.23426209        	6.8992310696e+06
0.23761862        	6.8985325079e+06
0.24091576        	6.8984019118e+06
0.24416583        	6.8987340666e+06
0.24737947        	6.8993607383e+06
0.25056156        	6.9001176202e+06
0.25371219        	6.9008384360e+06
0.25682784        	6.9013064053e+06
0.25991068        	6.9012418312e+06
0.26296715        	6.9003644098e+06
0.26600861        	6.8984940480e+06
0.2690443         	6.8956335024e+06
0.27209412        	6.8919963994e+06
0.27515607        	6.8880665239e+06
0.27822642        	6.8845623555e+06
0.28131487        	6.8822898870e+06
0.28440332        	6.8818962980e+06
0.28749735        	6.8835000633e+06
0.29062302        	6.8865933611e+06
0.29374868        	6.8901427060e+06
0.29687434        	6.8931829355e+06
0.3               	6.8952873447e+06
0.30319689        	6.8966752660e+06
0.30643367        	6.8978096564e+06
0.30972085        	6.8990422958e+06
0.3130681         	6.9003465158e+06
0.31648039        	6.9014225396e+06
0.31995617        	6.9019706920e+06
0.32349099        	6.9018838706e+06
0.32707836        	6.9012620447e+06
0.33071905        	6.9003338771e+06
0.33442014        	6.8994082849e+06
0.33818603        	6.8989006949e+06
0.34201171        	6.8993252276e+06
0.34587393        	6.9011173563e+06
0.34974008        	6.9043274064e+06
0.35359475        	6.9084538140e+06
0.35742003        	6.9124987801e+06
0.36121214        	6.9152922156e+06
0.3649693         	6.9159756930e+06
0.36868745        	6.9144814780e+06
0.37235843        	6.9116065740e+06
0.37597042        	6.9084994757e+06
0.37950757        	6.9059519379e+06
0.38295486        	6.9040919470e+06
0.38629211        	6.9026363482e+06
0.38949914        	6.9013152434e+06
0.39256477        	6.9000801979e+06
0.39547295        	6.8990493543e+06
0.39823162        	6.8983469879e+06
0.40088689        	6.8980240220e+06
0.40331628        	6.8980572494e+06
0.40560007        	6.8983516537e+06
0.40775298        	6.8988149883e+06
0.40979087        	6.8993639969e+06
0.4117317         	6.8999308906e+06
0.4135924         	6.9004608982e+06
0.41538896        	6.9009086466e+06
0.41713471        	6.9012351955e+06
0.41884155        	6.9014076968e+06
0.42052049        	6.9013999179e+06
0.42218103        	6.9011915916e+06
0.42383182        	6.9007623436e+06
0.42548075        	6.9000954401e+06
0.42713512        	6.8991901478e+06
0.42880162        	6.8980582478e+06
0.4304866         	6.8967217234e+06
0.43219627        	6.8952179884e+06
0.43393636        	6.8936067988e+06
0.43571179        	6.8919728974e+06
0.43752708        	6.8904168910e+06
0.4393863         	6.8890493597e+06
0.44129276        	6.8879870192e+06
0.44324941        	6.8873384026e+06
0.44525961        	6.8871859637e+06
0.44732637        	6.8875681734e+06
0.44945299        	6.8884606693e+06
0.45164323        	6.8897686546e+06
0.45390072        	6.8913400637e+06
0.45623039        	6.8929915556e+06
0.45863959        	6.8945506879e+06
0.46113765        	6.8959103174e+06
0.46373475        	6.8970544165e+06
0.46644563        	6.8980404305e+06
0.46928511        	6.8989444991e+06
0.47226941        	6.8997861314e+06
0.47540545        	6.9004756279e+06
0.4786896         	6.9008469415e+06
0.48210562        	6.9007605239e+06
0.48562617        	6.9002031007e+06
0.48924567        	6.8993153031e+06
0.49296371        	6.8983678859e+06
0.49676711        	6.8977329367e+06
0.50059445        	6.8978091579e+06
0.50457432        	6.8989448530e+06
0.50851467        	6.9011830336e+06
0.5123496         	6.9041343807e+06
0.51606111        	6.9071443893e+06
0.51966704        	6.9095530622e+06
0.52319545        	6.9109046875e+06
0.52666731        	6.9110414523e+06
0.53009177        	6.9101154441e+06
0.53346904        	6.9085146363e+06
0.53679019        	6.9066859164e+06
0.540045          	6.9049678944e+06
0.54322257        	6.9035066706e+06
0.54631741        	6.9023132133e+06
0.54933017        	6.9013607130e+06
0.55226742        	6.9006384542e+06
0.55513806        	6.9001615696e+06
0.55795113        	6.8999513706e+06
0.56071618        	6.9000123172e+06
0.56344098        	6.9003202337e+06
0.56613075        	6.9008158041e+06
0.5687863         	6.9014065466e+06
0.57140946        	6.9019797349e+06
0.57400226        	6.9024170598e+06
0.57656768        	6.9026093161e+06
0.57910949        	6.9024690969e+06
0.58164167        	6.9019382668e+06
0.58415727        	6.9010030077e+06
0.58667984        	6.8996847933e+06
0.58921702        	6.8980547485e+06
0.59176983        	6.8962359491e+06
0.59434176        	6.8943906738e+06
0.59691369        	6.8927178389e+06
0.59948561        	6.8913905660e+06
0.6021161         	6.8905266862e+06
0.60477917        	6.8902281204e+06
0.60746231        	6.8904946891e+06
0.61016623        	6.8912422175e+06
0.6128942         	6.8923281925e+06
0.61565135        	6.8935925947e+06
0.61844439        	6.8948917207e+06
0.62128171        	6.8961173622e+06
0.62417223        	6.8972088509e+06
0.62712529        	6.8981324663e+06
0.63014758        	6.8988572362e+06
0.63324246        	6.8993425994e+06
0.63640887        	6.8995398934e+06
0.63964201        	6.8994215998e+06
0.64293594        	6.8990110410e+06
0.64628787        	6.8984014578e+06
0.64969778        	6.8977604435e+06
0.65316704        	6.8973177059e+06
0.65668961        	6.8973253162e+06
0.66024871        	6.8979827032e+06
0.66381385        	6.8993419126e+06
0.66735575        	6.9012646785e+06
0.67084719        	6.9034625276e+06
0.67428093        	6.9055894671e+06
0.67766056        	6.9073205947e+06
0.68099113        	6.9084208590e+06
0.68428003        	6.9087954750e+06
0.68753137        	6.9084931993e+06
0.69074616        	6.9076681128e+06
0.69393315        	6.9065182982e+06
0.69704436        	6.9052601016e+06
0.70015221        	6.9040222999e+06
0.70316378        	6.9029490954e+06
0.7061168         	6.9020866033e+06
0.70901312        	6.9014681510e+06
0.71185738        	6.9011040572e+06
0.71465317        	6.9009859760e+06
0.71740745        	6.9010887892e+06
0.72012371        	6.9013689953e+06
0.72280578        	6.9017654608e+06
0.72545677        	6.9022033379e+06
0.72807955        	6.9025980565e+06
0.73067701        	6.9028658805e+06
0.73325324        	6.9029314367e+06
0.73581221        	6.9027347095e+06
0.73835903        	6.9022383038e+06
0.74089931        	6.9014329086e+06
0.74343751        	6.9003431364e+06
0.74598083        	6.8990275381e+06
0.74853229        	6.8975776805e+06
0.75109648        	6.8961067925e+06
0.75367559        	6.8947390307e+06
0.75627023        	6.8935922954e+06
0.75888116        	6.8927610386e+06
0.76150878        	6.8923033665e+06
0.76415401        	6.8922337534e+06
0.76681745        	6.8925247467e+06
0.76950136        	6.8931159233e+06
0.77221036        	6.8939275403e+06
0.77494818        	6.8948715068e+06
0.77772016        	6.8958608417e+06
0.78053426        	6.8968156034e+06
0.78339511        	6.8976625019e+06
0.78630764        	6.8983372577e+06
0.78927327        	6.8987862936e+06
0.79229178        	6.8989733296e+06
0.79537507        	6.8988889109e+06
0.79845836        	6.8985707892e+06
0.80160261        	6.8980959422e+06
0.80484774        	6.8975840148e+06
0.80814771        	6.8972080313e+06
0.81149727        	6.8971321643e+06
0.81488615        	6.8974810529e+06
0.81829901        	6.8983104606e+06
0.82171709        	6.8995908764e+06
0.82512242        	6.9011990457e+06
0.82850386        	6.9029368959e+06
0.83185633        	6.9045752352e+06
0.83517816        	6.9059039952e+06
0.83847047        	6.9067716824e+06
0.84173092        	6.9071080938e+06
0.84495839        	6.9069334875e+06
0.84814979        	6.9063443592e+06
0.85130092        	6.9054829668e+06
0.8544083         	6.9044996426e+06
0.85746975        	6.9035249268e+06
0.86048343        	6.9026595525e+06
0.86344907        	6.9019737950e+06
0.86636676        	6.9015107993e+06
0.86923897        	6.9012872849e+06
0.87206761        	6.9012934762e+06
0.87485605        	6.9014929490e+06
0.87760718        	6.9018254845e+06
0.88032495        	6.9022137196e+06
0.88301124        	6.9025727887e+06
0.88567226        	6.9028222336e+06
0.88830979        	6.9028946663e+06
0.8909368         	6.9027420782e+06
0.89353671        	6.9023436531e+06
0.89612203        	6.9017025305e+06
0.89870734        	6.9008433601e+06
0.90129366        	6.8998162183e+06
0.90388168        	6.8986899960e+06
0.90647441        	6.8975443976e+06
0.90907437        	6.8964619058e+06
0.9116831         	6.8955206017e+06
0.91430209        	6.8947886333e+06
0.91693315        	6.8943136383e+06
0.91957741        	6.8941195975e+06
0.92223787        	6.8942042581e+06
0.92491644        	6.8945389881e+06
0.92761671        	6.8950747403e+06
0.93034192        	6.8957476606e+06
0.93309571        	6.8964860385e+06
0.93588163        	6.8972172865e+06
0.93870373        	6.8978730287e+06
0.94156573        	6.8983928283e+06
0.94447043        	6.8987292972e+06
0.94742028        	6.8988548291e+06
0.95041723        	6.8987693189e+06
0.95346201        	6.8985067375e+06
0.95655482        	6.8981358477e+06
0.95969398        	6.8977548669e+06
0.96287708        	6.8974778921e+06
0.96610083        	6.8974159451e+06
0.96935613        	6.8976555541e+06
0.97263645        	6.8982389324e+06
0.97593327        	6.8991500333e+06
0.97923008        	6.9003107390e+06
0.98252689        	6.9015995479e+06
0.98580372        	6.9028633638e+06
0.98906724        	6.9039599162e+06
0.99232742        	6.9047723904e+06
0.99552433        	6.9052198114e+06
0.99872124        	6.9052983616e+06
1.001894          	6.9050427989e+06
1.0050249         	6.9045338399e+06
1.008121          	6.9038713439e+06
1.0111796         	6.9031583300e+06
1.014199          	6.9024857174e+06
1.0171783         	6.9019282793e+06
1.0201168         	6.9015358522e+06
1.0230154         	6.9013326035e+06
1.0258755         	6.9013161449e+06
1.0286986         	6.9014580944e+06
1.0314877         	6.9017112557e+06
1.0342451         	6.9020147189e+06
1.0369734         	6.9023015083e+06
1.0396759         	6.9025069686e+06
1.0423559         	6.9025759386e+06
1.0450174         	6.9024681504e+06
1.0476636         	6.9021619684e+06
1.0502978         	6.9016565877e+06
1.0529243         	6.9009712807e+06
1.0555469         	6.9001438865e+06
1.0581695         	6.8992270922e+06
1.0607921         	6.8982846078e+06
1.0634147         	6.8973838381e+06
1.0660463         	6.8965862257e+06
1.0686827         	6.8959483069e+06
1.0713273         	6.8955095394e+06
1.0739822         	6.8952910246e+06
1.0766507         	6.8952933151e+06
1.0793331         	6.8954977443e+06
1.0820331         	6.8958690615e+06
1.0847527         	6.8963594030e+06
1.0874958         	6.8969134767e+06
1.0902641         	6.8974716972e+06
1.0930512         	6.8979744249e+06
1.0958875         	6.8983747598e+06
1.0987237         	6.8986274060e+06
1.1015991         	6.8987173931e+06
1.1045362         	6.8986449656e+06
1.1075125         	6.8984367755e+06
1.1105283         	6.8981465060e+06
1.1135833         	6.8978472426e+06
1.1166756         	6.8976240073e+06
1.1198019         	6.8975598571e+06
1.1229579         	6.8977197329e+06
1.126138          	6.8981382064e+06
1.1293342         	6.8988098921e+06
1.132539          	6.8996909687e+06
1.1357492         	6.9007041435e+06
1.1389537         	6.9017464425e+06
1.1421523         	6.9027102068e+06
1.1453398         	6.9034954937e+06
1.148513          	6.9040300544e+06
1.1516691         	6.9042803073e+06
1.1548052         	6.9042535823e+06
1.1579181         	6.9039919514e+06
1.1610035         	6.9035614251e+06
1.1640611         	6.9030395215e+06
1.1670878         	6.9025047163e+06
1.1700814         	6.9020268812e+06
1.1730409         	6.9016600456e+06
1.1759666         	6.9014375503e+06
1.1788572         	6.9013693094e+06
1.1817145         	6.9014418429e+06
1.1845388         	6.9016220494e+06
1.1873335         	6.9018629685e+06
1.1900989         	6.9021100108e+06
1.1928492         	6.9023087566e+06
1.1955607         	6.9024080175e+06
1.1982512         	6.9023710487e+06
