# Solver information
# Time            	H2_solver         	H2_initial        	H2_final          	H2_iters          	H2_converged      	U_solver          	Ux_initial        	Ux_final          	Ux_iters          	Uy_initial        	Uy_final          	Uy_iters          	Uz_initial        	Uz_final          	Uz_iters          	U_converged       	k_solver          	k_initial         	k_final           	k_iters           	k_converged       	omega_solver      	omega_initial     	omega_final       	omega_iters       	omega_converged   	p_rgh_solver      	p_rgh_initial     	p_rgh_final       	p_rgh_iters       	p_rgh_converged   
1.200048e-05      	DILUPBiCGStab	1.0000000000e+00	1.8321401420e-04	1	true	smoothSolver	1.0000000000e+00	3.0977017680e-12	4	1.0000000000e+00	6.0132985640e-12	4	1.0000000000e+00	3.0225665620e-08	2	false	DILUPBiCGStab	1.0000000000e+00	7.5884278750e-10	2	true	DILUPBiCGStab	4.2962227010e-04	1.0965578910e-10	1	true	DICPCG	6.2545226240e-01	9.6616407750e-04	3	true
2.6401747e-05     	DILUPBiCGStab	7.0314693070e-02	9.7378021100e-06	1	true	smoothSolver	3.2012216050e-01	5.5111585190e-08	2	1.6722881980e-01	2.7692153590e-08	2	1.9115969380e-01	1.8885155340e-08	2	false	DILUPBiCGStab	5.5419481930e-01	3.9744595790e-10	2	true	DILUPBiCGStab	2.1375239640e-04	5.1442643640e-08	1	true	DICPCG	4.9626743080e-01	1.6522212230e-03	3	true
4.3683268e-05     	DILUPBiCGStab	4.2845067380e-02	8.4026312480e-06	1	true	smoothSolver	2.4709530400e-01	3.2783946370e-08	2	1.2183733860e-01	1.7968098570e-08	2	1.4216226830e-01	1.1309786480e-08	2	false	DILUPBiCGStab	3.4873661980e-01	9.2750692370e-08	1	true	DILUPBiCGStab	2.3479452810e-04	6.7627614460e-08	1	true	DICPCG	4.1371354700e-01	2.7864530070e-03	3	true
6.4421093e-05     	DILUPBiCGStab	3.2485844880e-02	9.6534716810e-06	1	true	smoothSolver	2.0504998580e-01	2.6175634130e-08	2	9.9693597680e-02	1.5516193940e-08	2	1.1824875600e-01	9.1051910090e-09	2	false	DILUPBiCGStab	2.5868920740e-01	9.7443269540e-08	1	true	DILUPBiCGStab	2.5339131470e-04	8.9507728500e-08	1	true	DICPCG	3.5998642460e-01	1.3859298650e-03	4	true
8.9305451e-05     	DILUPBiCGStab	2.7119324760e-02	1.2365735810e-05	1	true	smoothSolver	1.7500689960e-01	2.4922536870e-08	2	8.6076017260e-02	1.5276308210e-08	2	1.0383764790e-01	9.0210149800e-09	2	false	DILUPBiCGStab	2.1521824060e-01	6.8150885650e-10	2	true	DILUPBiCGStab	2.7900829570e-04	1.4521636610e-10	1	true	DICPCG	3.5960242880e-01	2.4673333100e-03	4	true
0.00011916519     	DILUPBiCGStab	2.3861990340e-02	1.6765518350e-05	1	true	smoothSolver	1.5024806820e-01	2.6837376910e-08	2	7.6567765630e-02	1.7292749760e-08	2	9.4128101740e-02	1.0240617960e-08	2	false	DILUPBiCGStab	1.9132464270e-01	1.0124336130e-09	2	true	DILUPBiCGStab	3.1180394130e-04	2.1239279440e-10	1	true	DICPCG	3.9993758120e-01	2.1977106920e-03	5	true
0.00015499046     	DILUPBiCGStab	2.1668707660e-02	2.3363196790e-05	1	true	smoothSolver	1.2687676070e-01	3.3533251090e-08	2	6.9330916490e-02	2.2184211330e-08	2	8.7013721200e-02	1.3502473670e-08	2	false	DILUPBiCGStab	1.7511711010e-01	1.5584769620e-09	2	true	DILUPBiCGStab	3.5233686420e-04	3.1476647970e-10	1	true	DICPCG	4.4423485800e-01	4.3686436430e-03	5	true
0.00019797152     	DILUPBiCGStab	2.0071972580e-02	3.2338517900e-05	1	true	smoothSolver	1.0291082060e-01	4.5350304790e-08	2	6.3739524720e-02	3.0974317950e-08	2	8.1631206480e-02	1.9735021720e-08	2	false	DILUPBiCGStab	1.6223171410e-01	2.4377981900e-09	2	true	DILUPBiCGStab	4.0093618280e-04	4.7516194050e-10	1	true	DICPCG	4.5251911080e-01	4.3967528860e-03	6	true
0.00024954879     	DILUPBiCGStab	1.8838343560e-02	4.3486801990e-05	1	true	smoothSolver	8.1818534140e-02	6.9717451750e-08	2	5.9192413600e-02	4.6359527340e-08	2	7.7155169420e-02	3.1450638620e-08	2	false	DILUPBiCGStab	1.5058235920e-01	3.8438140080e-09	2	true	DILUPBiCGStab	4.5484643100e-04	7.3078733590e-10	1	true	DICPCG	4.1915799840e-01	3.8414526440e-03	8	true
0.00031142873     	DILUPBiCGStab	1.7834255030e-02	5.7698517870e-05	1	true	smoothSolver	8.4130135200e-02	2.9920572520e-11	4	5.6443776960e-02	7.2122980110e-08	2	7.4167726810e-02	5.2895982940e-08	2	false	DILUPBiCGStab	1.3964209920e-01	6.1167144190e-09	2	true	DILUPBiCGStab	5.1645448280e-04	1.1449200340e-09	1	true	DICPCG	3.5883249830e-01	2.4864936450e-03	10	true
0.000385657       	DILUPBiCGStab	1.6963444460e-02	7.7447429600e-05	1	true	smoothSolver	1.2406599050e-01	9.4753753810e-11	4	5.4827740620e-02	3.6726641010e-11	4	7.2271196880e-02	9.1539126880e-08	2	false	DILUPBiCGStab	1.2987943750e-01	9.8556833990e-09	2	true	DILUPBiCGStab	5.8944169290e-04	1.8417844110e-09	1	true	DICPCG	2.9167191730e-01	1.9527007140e-03	12	true
0.00047475749     	DILUPBiCGStab	1.6155484050e-02	1.0345123380e-04	1	true	smoothSolver	1.9882460740e-01	3.2840049570e-10	4	5.4406350670e-02	7.9024307640e-11	4	7.1323235280e-02	6.2855799190e-11	4	false	DILUPBiCGStab	1.2524036130e-01	1.6235437560e-08	2	true	DILUPBiCGStab	6.7419018070e-04	3.0292795920e-09	1	true	DICPCG	2.8514496620e-01	2.5456018420e-03	14	true
0.00058165893     	DILUPBiCGStab	1.5387741270e-02	1.3502946050e-04	1	true	smoothSolver	2.7636349700e-01	7.3127057240e-10	4	5.2266471940e-02	1.7277002890e-10	4	6.8968015410e-02	1.7258854910e-10	4	false	DILUPBiCGStab	1.2693166180e-01	2.6731106960e-08	2	true	DILUPBiCGStab	7.8421793370e-04	4.9675095090e-09	1	true	DICPCG	2.9410208790e-01	2.5560024760e-03	17	true
0.00070994066     	DILUPBiCGStab	1.4699083720e-02	1.7741815360e-04	1	true	smoothSolver	2.6077190690e-01	2.2047811150e-09	4	4.7055212270e-02	6.1105524760e-10	4	6.4602124990e-02	6.5283610390e-10	4	false	DILUPBiCGStab	1.2764716380e-01	4.4612647600e-08	2	true	DILUPBiCGStab	8.8323476640e-04	8.2500993580e-09	1	true	DICPCG	3.9017038210e-01	3.8160101680e-03	19	true
0.00086387873     	DILUPBiCGStab	1.4067619340e-02	2.2910886660e-04	1	true	smoothSolver	1.8884371070e-01	3.9642538430e-09	4	3.9032476070e-02	1.4311957280e-09	4	5.8970975310e-02	1.5959213600e-09	4	false	DILUPBiCGStab	1.2583928290e-01	7.3391703080e-08	2	true	DILUPBiCGStab	9.7848937680e-04	1.4051805970e-08	1	true	DICPCG	4.6260078500e-01	3.9774466190e-03	23	true
0.0010484898      	DILUPBiCGStab	1.3496850650e-02	2.8486027310e-04	1	true	smoothSolver	1.2282074810e-01	7.0719562380e-09	4	2.8895117410e-02	2.4848943860e-09	4	5.3380915830e-02	2.7629705620e-09	4	false	DILUPBiCGStab	1.2158395020e-01	3.9539428660e-09	2	true	DILUPBiCGStab	1.0895492790e-03	2.4902582430e-08	1	true	DICPCG	4.7274623300e-01	3.9348992470e-03	27	true
0.0012698578      	DILUPBiCGStab	1.3015470670e-02	3.4353873280e-04	1	true	smoothSolver	6.9674945700e-02	1.6531685870e-08	4	1.8176965010e-02	6.1886838580e-09	4	4.9518888550e-02	5.6944981060e-09	4	false	DILUPBiCGStab	1.1631247470e-01	7.0670769680e-09	2	true	DILUPBiCGStab	1.2131476930e-03	4.5882716450e-08	1	true	DICPCG	4.4638056570e-01	3.7171965490e-03	31	true
0.0015352614      	DILUPBiCGStab	1.2652501780e-02	4.1388144370e-04	1	true	smoothSolver	5.9415403770e-02	4.2319559110e-08	4	1.7390621100e-02	1.8053488470e-08	4	5.3317060220e-02	1.3220153160e-08	4	false	DILUPBiCGStab	1.1088329770e-01	1.3210794480e-08	2	true	DILUPBiCGStab	1.3503796520e-03	8.8495808630e-08	1	true	DICPCG	3.8039398830e-01	3.5881721270e-03	37	true
0.0018508535      	DILUPBiCGStab	1.2339331110e-02	4.9949893940e-04	1	true	smoothSolver	9.4287336200e-02	9.9923133850e-08	4	3.1974121080e-02	4.8939308880e-08	4	6.7023486930e-02	3.3369990900e-08	4	false	DILUPBiCGStab	1.0600445350e-01	2.2768055590e-08	2	true	DILUPBiCGStab	1.4945104670e-03	3.8092607220e-09	2	true	DICPCG	3.0084611080e-01	2.9558955390e-03	44	true
0.0022170817      	DILUPBiCGStab	1.1881156660e-02	5.8587420480e-04	1	true	smoothSolver	1.2331039700e-01	1.6735528480e-09	6	4.3823509480e-02	9.9372165990e-10	6	7.7655880010e-02	7.7615403880e-08	4	false	DILUPBiCGStab	1.0056117180e-01	3.3656356730e-08	2	true	DILUPBiCGStab	1.6051773920e-03	5.9561034620e-09	2	true	DICPCG	3.0634923470e-01	2.9070800760e-03	48	true
0.0026331792      	DILUPBiCGStab	1.1326604830e-02	6.7119540230e-04	1	true	smoothSolver	1.1941955410e-01	3.0641814030e-09	6	4.7017044360e-02	2.3569912610e-09	6	8.4547066010e-02	1.5016146650e-09	6	false	DILUPBiCGStab	9.4664757690e-02	4.6542378710e-08	2	true	DILUPBiCGStab	1.6693243500e-03	9.0251318480e-09	2	true	DICPCG	3.4621284900e-01	3.3355178200e-03	50	true
0.0030990492      	DILUPBiCGStab	1.0731889500e-02	7.4870733270e-04	1	true	smoothSolver	9.3222568520e-02	4.1616363060e-09	6	4.0891005020e-02	3.9097056170e-09	6	8.6922482280e-02	2.9677098620e-09	6	false	DILUPBiCGStab	8.7673131640e-02	6.1163191790e-08	2	true	DILUPBiCGStab	1.7049672420e-03	1.3921461190e-08	2	true	DICPCG	3.5303445290e-01	3.4064721540e-03	55	true
0.0036011266      	DILUPBiCGStab	9.8589669360e-03	7.5243138300e-04	1	true	smoothSolver	6.0342495460e-02	3.9557767940e-09	6	2.9436933800e-02	4.2803247370e-09	6	8.3765581000e-02	4.4124193500e-09	6	false	DILUPBiCGStab	7.9184015850e-02	7.1051123680e-08	2	true	DILUPBiCGStab	1.6810264900e-03	1.8528562980e-08	2	true	DICPCG	3.2860162550e-01	3.2788276740e-03	59	true
0.0041032041      	DILUPBiCGStab	8.4926589810e-03	5.9429162720e-04	1	true	smoothSolver	4.3560148970e-02	3.4706379790e-09	6	2.0257653540e-02	2.6670143820e-09	6	7.4875255350e-02	4.0419166240e-09	6	false	DILUPBiCGStab	6.7990636590e-02	6.3278425880e-08	2	true	DILUPBiCGStab	1.5591903270e-03	1.8244551800e-08	2	true	DICPCG	2.7386522820e-01	2.6541557890e-03	60	true
0.0046052815      	DILUPBiCGStab	7.4027036840e-03	4.5739838390e-04	1	true	smoothSolver	5.6992006530e-02	5.4880321630e-09	6	1.9514941290e-02	2.5070881680e-09	6	6.7216307940e-02	3.5001917850e-09	6	false	DILUPBiCGStab	5.9684966190e-02	5.8424356000e-08	2	true	DILUPBiCGStab	1.4555761370e-03	1.7184689930e-08	2	true	DICPCG	2.1981845930e-01	2.1140333720e-03	61	true
0.005107359       	DILUPBiCGStab	6.5430816520e-03	3.5265889620e-04	1	true	smoothSolver	7.1468932770e-02	8.1534114480e-09	6	2.2400786320e-02	3.6628295380e-09	6	5.9122136710e-02	2.8853344820e-09	6	false	DILUPBiCGStab	5.3334844180e-02	5.4543878220e-08	2	true	DILUPBiCGStab	1.3663587480e-03	1.5661834710e-08	2	true	DICPCG	1.8743848390e-01	1.7984574970e-03	62	true
0.0056094365      	DILUPBiCGStab	5.8672089390e-03	2.7523847780e-04	1	true	smoothSolver	7.5046919990e-02	9.6974603890e-09	6	2.3445862010e-02	4.5634118910e-09	6	5.2427992160e-02	2.2672612770e-09	6	false	DILUPBiCGStab	4.8291552650e-02	5.0923918690e-08	2	true	DILUPBiCGStab	1.2899651440e-03	1.4598035020e-08	2	true	DICPCG	1.7192324280e-01	1.6588450120e-03	63	true
0.0061115139      	DILUPBiCGStab	5.3384312050e-03	2.2007445630e-04	1	true	smoothSolver	6.6396711070e-02	8.8165439410e-09	6	2.1717962380e-02	4.5694666020e-09	6	4.7117730810e-02	1.6807844620e-09	6	false	DILUPBiCGStab	4.4175648800e-02	4.7571684550e-08	2	true	DILUPBiCGStab	1.2268659790e-03	1.3742450940e-08	2	true	DICPCG	1.5892065350e-01	1.5608768950e-03	64	true
0.0066109208      	DILUPBiCGStab	4.8958928380e-03	1.7844776670e-04	1	true	smoothSolver	5.1497104500e-02	6.2541114340e-09	6	1.8300664640e-02	3.6279879360e-09	6	4.3366739840e-02	1.4713288580e-09	6	false	DILUPBiCGStab	4.0563582290e-02	4.3214895110e-08	2	true	DILUPBiCGStab	1.1676102630e-03	1.2883404940e-08	2	true	DICPCG	1.4457633980e-01	1.4026343060e-03	66	true
0.0071103276      	DILUPBiCGStab	4.5636129860e-03	1.5029395470e-04	1	true	smoothSolver	3.7970333610e-02	4.0207134580e-09	6	1.4770502260e-02	2.3572032830e-09	6	4.1273007270e-02	1.6699808940e-09	6	false	DILUPBiCGStab	3.7733040530e-02	4.0042018550e-08	2	true	DILUPBiCGStab	1.1218991750e-03	1.2304541390e-08	2	true	DICPCG	1.2987343570e-01	1.2390077900e-03	67	true
0.0076097345      	DILUPBiCGStab	4.2928653080e-03	1.2937315780e-04	1	true	smoothSolver	3.1962078750e-02	3.9905052780e-09	6	1.1967492740e-02	1.4462335820e-09	6	3.9824717600e-02	1.9595542100e-09	6	false	DILUPBiCGStab	3.5304756970e-02	3.6988771900e-08	2	true	DILUPBiCGStab	1.0806582290e-03	1.1820735370e-08	2	true	DICPCG	1.1568522170e-01	1.1184802360e-03	68	true
0.0081091413      	DILUPBiCGStab	4.0681300170e-03	1.1353528980e-04	1	true	smoothSolver	3.0436466950e-02	3.8400859010e-09	6	1.0485686090e-02	9.0281850860e-08	4	3.8453964140e-02	2.3869369060e-09	6	false	DILUPBiCGStab	3.3178558180e-02	3.4081825860e-08	2	true	DILUPBiCGStab	1.0418990980e-03	1.1468177380e-08	2	true	DICPCG	1.0277305290e-01	9.9922117890e-04	70	true
0.0086085481      	DILUPBiCGStab	3.8791194720e-03	1.0148214250e-04	1	true	smoothSolver	2.8764070890e-02	3.3688672100e-09	6	1.0508399110e-02	1.4784547890e-09	6	3.7156855630e-02	2.9509548710e-09	6	false	DILUPBiCGStab	3.1305428420e-02	3.1406550050e-08	2	true	DILUPBiCGStab	1.0065898420e-03	1.1241262070e-08	2	true	DICPCG	9.2000696140e-02	8.6846546000e-04	72	true
0.009107955       	DILUPBiCGStab	3.7183362560e-03	9.2261592030e-05	1	true	smoothSolver	2.6955753530e-02	3.0698432140e-09	6	1.0893461170e-02	1.8263980190e-09	6	3.5972894720e-02	3.6025838630e-09	6	false	DILUPBiCGStab	2.9642638790e-02	2.8935825190e-08	2	true	DILUPBiCGStab	9.7492326060e-04	1.1000990370e-08	2	true	DICPCG	8.3683126850e-02	7.7055818640e-04	73	true
0.0096073618      	DILUPBiCGStab	3.5795989560e-03	8.4813595170e-05	1	true	smoothSolver	2.4560407790e-02	2.8808969430e-09	6	1.0839697770e-02	1.9134460960e-09	6	3.4873635380e-02	4.3274492670e-09	6	false	DILUPBiCGStab	2.8171586090e-02	2.6662707110e-08	2	true	DILUPBiCGStab	9.4375071950e-04	1.1042352750e-08	2	true	DICPCG	7.6520810770e-02	7.2817098820e-04	73	true
0.010106769       	DILUPBiCGStab	3.4585772210e-03	7.8881462270e-05	1	true	smoothSolver	2.1281817290e-02	2.4893920120e-09	6	1.0257541830e-02	1.6734915500e-09	6	3.3651199490e-02	5.0537855720e-09	6	false	DILUPBiCGStab	2.6933521670e-02	2.4635209140e-08	2	true	DILUPBiCGStab	9.1431263080e-04	1.1181904520e-08	2	true	DICPCG	6.9901801130e-02	6.7335093420e-04	73	true
0.010606176       	DILUPBiCGStab	3.3526645640e-03	7.4151982510e-05	1	true	smoothSolver	1.8276053130e-02	2.0725102840e-09	6	9.4284113320e-03	1.3170462190e-09	6	3.2616422420e-02	5.8427176090e-09	6	false	DILUPBiCGStab	2.5962851250e-02	2.2864565770e-08	2	true	DILUPBiCGStab	8.8781208500e-04	1.1313158310e-08	2	true	DICPCG	6.3915418140e-02	6.3029008020e-04	73	true
0.011105582       	DILUPBiCGStab	3.2594176180e-03	7.0196148760e-05	1	true	smoothSolver	1.6171088320e-02	1.8605005390e-09	6	8.2581575300e-03	6.7145375380e-08	4	3.1597344910e-02	6.6536310310e-09	6	false	DILUPBiCGStab	2.5207772160e-02	2.1374832620e-08	2	true	DILUPBiCGStab	8.6279950120e-04	1.1532717160e-08	2	true	DICPCG	5.8823769680e-02	5.8371481240e-04	73	true
0.011604989       	DILUPBiCGStab	3.1761737040e-03	6.6762214310e-05	1	true	smoothSolver	1.4527239420e-02	1.6530843670e-09	6	7.1326950070e-03	4.2943316840e-08	4	3.0470922800e-02	7.4196658220e-09	6	false	DILUPBiCGStab	2.4580106730e-02	2.0198888920e-08	2	true	DILUPBiCGStab	8.3992157410e-04	1.1799274640e-08	2	true	DICPCG	5.4897737580e-02	5.3814962000e-04	73	true
0.012104396       	DILUPBiCGStab	3.1011138890e-03	6.3804467130e-05	1	true	smoothSolver	1.3461844020e-02	1.3539199300e-09	6	6.6920219170e-03	5.5574128400e-08	4	2.9214426260e-02	8.1093324820e-09	6	false	DILUPBiCGStab	2.4032454600e-02	1.9361254450e-08	2	true	DILUPBiCGStab	8.1906789190e-04	1.2147269090e-08	2	true	DICPCG	5.2309604130e-02	4.8391853950e-04	73	true
0.012603803       	DILUPBiCGStab	3.0326787650e-03	6.1160411920e-05	1	true	smoothSolver	1.3454003180e-02	1.2759614480e-09	6	6.3460010550e-03	7.3418100330e-08	4	2.7819915790e-02	8.6843628020e-09	6	false	DILUPBiCGStab	2.3544564380e-02	1.8873296320e-08	2	true	DILUPBiCGStab	7.9976406470e-04	1.2628623230e-08	2	true	DICPCG	5.0426569230e-02	4.5399646960e-04	72	true
0.01310321        	DILUPBiCGStab	2.9701832690e-03	5.8745382040e-05	1	true	smoothSolver	1.3613877590e-02	1.2953154790e-09	6	5.8016791030e-03	8.2147473050e-08	4	2.6325450840e-02	9.1100426260e-09	6	false	DILUPBiCGStab	2.3120889170e-02	1.8816493050e-08	2	true	DILUPBiCGStab	7.8313609090e-04	1.3113835630e-08	2	true	DICPCG	4.8792576440e-02	4.8111776280e-04	69	true
0.013602617       	DILUPBiCGStab	2.9132030530e-03	5.6641234760e-05	1	true	smoothSolver	1.3764657250e-02	1.5038550950e-09	6	5.1054781200e-03	7.9713743720e-08	4	2.4854490860e-02	9.3803451090e-09	6	false	DILUPBiCGStab	2.2755678800e-02	1.9094828210e-08	2	true	DILUPBiCGStab	7.6877038340e-04	1.3622724040e-08	2	true	DICPCG	4.7063762420e-02	4.3540898470e-04	68	true
0.014102023       	DILUPBiCGStab	2.8610759230e-03	5.4807921270e-05	1	true	smoothSolver	1.3792452160e-02	1.7016110630e-09	6	4.5787064940e-03	7.1283769270e-08	4	2.3522125380e-02	9.4948369190e-09	6	false	DILUPBiCGStab	2.2446455420e-02	1.9677932440e-08	2	true	DILUPBiCGStab	7.5588060610e-04	1.4358564170e-08	2	true	DICPCG	4.5126408450e-02	4.3885947690e-04	66	true
0.01460143        	DILUPBiCGStab	2.8132677450e-03	5.3207758480e-05	1	true	smoothSolver	1.3653588310e-02	1.7990807900e-09	6	4.5466071480e-03	6.6962450580e-08	4	2.2482031780e-02	9.4592438910e-09	6	false	DILUPBiCGStab	2.2182230260e-02	2.0529386180e-08	2	true	DILUPBiCGStab	7.4490322360e-04	1.5235058370e-08	2	true	DICPCG	4.3051089890e-02	4.0161280820e-04	66	true
0.015100837       	DILUPBiCGStab	2.7694963920e-03	5.1950916490e-05	1	true	smoothSolver	1.3640672650e-02	2.0122609320e-09	6	4.8719049880e-03	7.6337124720e-08	4	2.1724866900e-02	9.2808261560e-09	6	false	DILUPBiCGStab	2.1953228240e-02	2.1637877070e-08	2	true	DILUPBiCGStab	7.3609264090e-04	1.6059455250e-08	2	true	DICPCG	4.1034356250e-02	4.0297954250e-04	65	true
0.015600244       	DILUPBiCGStab	2.7295301510e-03	5.0827830010e-05	1	true	smoothSolver	1.3831703530e-02	2.3514340460e-09	6	5.2653788050e-03	9.3783288040e-08	4	2.1140824900e-02	8.9634333310e-09	6	false	DILUPBiCGStab	2.1744595870e-02	2.2947958270e-08	2	true	DILUPBiCGStab	7.2789251620e-04	1.7283583770e-08	2	true	DICPCG	3.9115205830e-02	3.5734672170e-04	65	true
0.016099651       	DILUPBiCGStab	2.6930673920e-03	4.9857872790e-05	1	true	smoothSolver	1.3807489790e-02	2.6294014490e-09	6	5.5762887540e-03	1.4900080400e-09	6	2.0723172280e-02	8.5241728640e-09	6	false	DILUPBiCGStab	2.1552423500e-02	2.4418811760e-08	2	true	DILUPBiCGStab	7.2061002190e-04	1.8926096180e-08	2	true	DICPCG	3.7325145760e-02	3.5475213150e-04	65	true
0.016599058       	DILUPBiCGStab	2.6596983680e-03	4.9045212510e-05	1	true	smoothSolver	1.3522262500e-02	2.7828554840e-09	6	5.6595790290e-03	1.6609037480e-09	6	2.0432808940e-02	7.9995157320e-09	6	false	DILUPBiCGStab	2.1370170390e-02	2.5925408780e-08	2	true	DILUPBiCGStab	7.1477054650e-04	2.0892539870e-08	2	true	DICPCG	3.5795504520e-02	3.3780758810e-04	66	true
0.017098464       	DILUPBiCGStab	2.6290252030e-03	4.8283240090e-05	1	true	smoothSolver	1.2988153840e-02	2.7869148100e-09	6	5.5527031370e-03	1.7037110090e-09	6	2.0201540510e-02	7.4344974510e-09	6	false	DILUPBiCGStab	2.1184128440e-02	2.7524767870e-08	2	true	DILUPBiCGStab	7.1021349230e-04	2.3061202920e-08	2	true	DICPCG	3.4563347060e-02	3.2727698510e-04	68	true
0.017597871       	DILUPBiCGStab	2.6006995320e-03	4.7610548530e-05	1	true	smoothSolver	1.2174675710e-02	2.6403396000e-09	6	5.3062082900e-03	1.6313771750e-09	6	2.0103061170e-02	6.9085878500e-09	6	false	DILUPBiCGStab	2.0989623560e-02	2.9169283300e-08	2	true	DILUPBiCGStab	7.0593805900e-04	2.5350168130e-08	2	true	DICPCG	3.3497155580e-02	3.1628617280e-04	69	true
0.018097278       	DILUPBiCGStab	2.5741987690e-03	4.7020145090e-05	1	true	smoothSolver	1.1161852780e-02	2.3804697110e-09	6	4.8873120550e-03	1.4646962580e-09	6	2.0111708790e-02	6.4897617430e-09	6	false	DILUPBiCGStab	2.0780810710e-02	3.0763692080e-08	2	true	DILUPBiCGStab	7.0141233900e-04	2.7504193170e-08	2	true	DICPCG	3.2657750920e-02	3.0540517960e-04	70	true
0.018596685       	DILUPBiCGStab	2.5489561750e-03	4.6483961820e-05	1	true	smoothSolver	1.0071125010e-02	2.0590640050e-09	6	4.3221296760e-03	9.2091772740e-08	4	2.0161668490e-02	6.1978466660e-09	6	false	DILUPBiCGStab	2.0557340660e-02	3.2370674490e-08	2	true	DILUPBiCGStab	6.9628690490e-04	2.9839353480e-08	2	true	DICPCG	3.2129404690e-02	3.2099882620e-04	69	true
0.019096092       	DILUPBiCGStab	2.5244120980e-03	4.5947489340e-05	1	true	smoothSolver	9.0295990670e-03	1.7542853770e-09	6	3.6976447960e-03	7.5042071730e-08	4	2.0208727960e-02	5.8778169230e-09	6	false	DILUPBiCGStab	2.0330945730e-02	3.3915542640e-08	2	true	DILUPBiCGStab	6.8998797800e-04	3.2112669280e-08	2	true	DICPCG	3.1834298850e-02	3.0588552390e-04	69	true
0.019595499       	DILUPBiCGStab	2.5001466030e-03	4.5507685990e-05	1	true	smoothSolver	8.0827695920e-03	1.4819465640e-09	6	3.1155690250e-03	6.0612251050e-08	4	2.0215956170e-02	5.5925037500e-09	6	false	DILUPBiCGStab	2.0102209980e-02	3.5346806420e-08	2	true	DILUPBiCGStab	6.8256610710e-04	3.4053433740e-08	2	true	DICPCG	3.1625312290e-02	2.8418402850e-04	69	true
0.020094905       	DILUPBiCGStab	2.4757212840e-03	4.5061543630e-05	1	true	smoothSolver	7.2384515780e-03	1.2282974550e-09	6	2.5658302590e-03	4.7895111770e-08	4	2.0163597690e-02	5.2452022100e-09	6	false	DILUPBiCGStab	1.9876044350e-02	3.6705357690e-08	2	true	DILUPBiCGStab	6.7389034370e-04	3.5838722600e-08	2	true	DICPCG	3.1516693100e-02	2.9577529760e-04	68	true
0.020594312       	DILUPBiCGStab	2.4507181010e-03	4.4566510990e-05	1	true	smoothSolver	6.4983510160e-03	9.0638188400e-08	4	2.0884628180e-03	3.6268114010e-08	4	2.0051269090e-02	4.7799147500e-09	6	false	DILUPBiCGStab	1.9652222370e-02	3.7899129640e-08	2	true	DILUPBiCGStab	6.6390422790e-04	3.7015193940e-08	2	true	DICPCG	3.1572845100e-02	3.0743550000e-04	67	true
0.021093719       	DILUPBiCGStab	2.4248286590e-03	4.4028924640e-05	1	true	smoothSolver	5.8792429970e-03	7.1540478530e-08	4	1.8258046680e-03	2.9177655990e-08	4	1.9926833790e-02	4.2481065020e-09	6	false	DILUPBiCGStab	1.9434178980e-02	3.9013230330e-08	2	true	DILUPBiCGStab	6.5282052740e-04	3.6908628130e-08	2	true	DICPCG	3.1819647750e-02	2.9894200380e-04	66	true
0.021593126       	DILUPBiCGStab	2.3979179890e-03	4.3414126720e-05	1	true	smoothSolver	5.5024543690e-03	5.6201498120e-08	4	1.7786957240e-03	2.7693382080e-08	4	1.9786922930e-02	3.6794953250e-09	6	false	DILUPBiCGStab	1.9223141140e-02	4.0013756130e-08	2	true	DILUPBiCGStab	6.4005927780e-04	3.6753546270e-08	2	true	DICPCG	3.2164739830e-02	3.1459326280e-04	63	true
0.022092533       	DILUPBiCGStab	2.3699963970e-03	4.2743462130e-05	1	true	smoothSolver	5.6335746890e-03	5.8216701900e-08	4	1.9249886740e-03	3.3386408840e-08	4	1.9591372780e-02	3.0522548630e-09	6	false	DILUPBiCGStab	1.9019796630e-02	4.0820655800e-08	2	true	DILUPBiCGStab	6.2647427220e-04	3.6348110850e-08	2	true	DICPCG	3.2473273830e-02	3.0785544040e-04	62	true
0.02259194        	DILUPBiCGStab	2.3411386450e-03	4.1985155770e-05	1	true	smoothSolver	6.0088658700e-03	7.1517692380e-08	4	2.1697843190e-03	4.0439351500e-08	4	1.9394511540e-02	2.3864437440e-09	6	false	DILUPBiCGStab	1.8824535680e-02	4.1522849050e-08	2	true	DILUPBiCGStab	6.1241196800e-04	3.6357816710e-08	2	true	DICPCG	3.2651313980e-02	3.1494464320e-04	61	true
0.023091347       	DILUPBiCGStab	2.3115698370e-03	4.1159657280e-05	1	true	smoothSolver	6.3651825410e-03	8.3394665450e-08	4	2.4143440540e-03	4.5586418070e-08	4	1.9292439760e-02	1.7564671950e-09	6	false	DILUPBiCGStab	1.8640696390e-02	4.2107627510e-08	2	true	DILUPBiCGStab	5.9865497180e-04	3.6697619050e-08	2	true	DICPCG	3.2651553880e-02	3.0011405670e-04	61	true
0.023587531       	DILUPBiCGStab	2.2675531650e-03	3.9603368680e-05	1	true	smoothSolver	6.5853667280e-03	8.9176966120e-08	4	2.5604858140e-03	4.7510281500e-08	4	1.9299851270e-02	1.3722172070e-09	6	false	DILUPBiCGStab	1.8364211970e-02	4.1516959830e-08	2	true	DILUPBiCGStab	5.8194794410e-04	3.6858562500e-08	2	true	DICPCG	3.2447258090e-02	3.1489693120e-04	60	true
0.024080515       	DILUPBiCGStab	2.2240757650e-03	3.8087270070e-05	1	true	smoothSolver	6.6433287350e-03	9.0553137660e-08	4	2.5953671490e-03	4.7352378510e-08	4	1.9462328060e-02	9.4634247280e-08	4	false	DILUPBiCGStab	1.8099933930e-02	4.0527070770e-08	2	true	DILUPBiCGStab	5.6565412700e-04	3.6630873050e-08	2	true	DICPCG	3.2168817850e-02	3.1359235290e-04	59	true
0.024570318       	DILUPBiCGStab	2.1815273790e-03	3.6648731750e-05	1	true	smoothSolver	6.5330669780e-03	8.7824302850e-08	4	2.5199046330e-03	4.5237668880e-08	4	1.9667829790e-02	8.6142790210e-08	4	false	DILUPBiCGStab	1.7845698980e-02	3.9426705440e-08	2	true	DILUPBiCGStab	5.4975358010e-04	3.6967489200e-08	2	true	DICPCG	3.2022811300e-02	3.0760505920e-04	58	true
0.025060121       	DILUPBiCGStab	2.1535740170e-03	3.5899251490e-05	1	true	smoothSolver	6.3108160270e-03	8.3973126660e-08	4	2.3571220090e-03	4.2504304420e-08	4	1.9997180290e-02	8.7775834020e-08	4	false	DILUPBiCGStab	1.7697538170e-02	3.9221561980e-08	2	true	DILUPBiCGStab	5.3728864550e-04	4.0160507540e-08	2	true	DICPCG	3.1958962580e-02	3.0622518380e-04	56	true
0.025546744       	DILUPBiCGStab	2.1135860270e-03	3.4579539410e-05	1	true	smoothSolver	5.9548833680e-03	7.4954989420e-08	4	2.0953625950e-03	3.7004292520e-08	4	2.0271784790e-02	8.7013122400e-08	4	false	DILUPBiCGStab	1.7453697560e-02	3.7968886230e-08	2	true	DILUPBiCGStab	5.2253523530e-04	4.4998557870e-08	2	true	DICPCG	3.1852512730e-02	2.9484615580e-04	54	true
0.026036568       	DILUPBiCGStab	2.1015367320e-03	3.4519905240e-05	1	true	smoothSolver	5.6292312100e-03	6.8033187910e-08	4	1.7953776620e-03	3.2136477460e-08	4	2.0812074980e-02	9.5155989220e-08	4	false	DILUPBiCGStab	1.7407101280e-02	3.8563339630e-08	2	true	DILUPBiCGStab	5.1437342990e-04	5.4702878790e-08	2	true	DICPCG	3.1786744050e-02	2.9700042360e-04	53	true
0.026526392       	DILUPBiCGStab	2.0777699560e-03	3.3934245360e-05	1	true	smoothSolver	5.2819963450e-03	5.7623843590e-08	4	1.4432793840e-03	2.5157952770e-08	4	2.1226871670e-02	1.3401382770e-09	6	false	DILUPBiCGStab	1.7262417140e-02	3.8125728970e-08	2	true	DILUPBiCGStab	5.0382945260e-04	6.7364487660e-08	2	true	DICPCG	3.1622208830e-02	3.1313181990e-04	52	true
0.027019503       	DILUPBiCGStab	2.0688451330e-03	3.4006793020e-05	1	true	smoothSolver	4.9833633460e-03	4.9225704890e-08	4	1.0918581820e-03	1.8229773950e-08	4	2.1765110300e-02	1.5291458410e-09	6	false	DILUPBiCGStab	1.7213933440e-02	3.8602782600e-08	2	true	DILUPBiCGStab	4.9684910320e-04	8.1694019190e-08	2	true	DICPCG	3.1457487940e-02	3.0039247440e-04	53	true
0.027512615       	DILUPBiCGStab	2.0483801410e-03	3.3580018880e-05	1	true	smoothSolver	4.7227905270e-03	4.4830615970e-08	4	8.1697450250e-04	1.1956562540e-08	4	2.2166673200e-02	1.6110026050e-09	6	false	DILUPBiCGStab	1.7062488510e-02	3.8096847980e-08	2	true	DILUPBiCGStab	4.8746555130e-04	9.9505206730e-08	2	true	DICPCG	3.1309836490e-02	3.0846613090e-04	53	true
0.028009104       	DILUPBiCGStab	2.0428903630e-03	3.3845938360e-05	1	true	smoothSolver	4.6806187080e-03	5.0158099610e-08	4	8.7500615920e-04	1.4406256200e-08	4	2.2783149610e-02	1.6886810010e-09	6	false	DILUPBiCGStab	1.7009473520e-02	3.8644813880e-08	2	true	DILUPBiCGStab	4.8129961070e-04	4.5850527500e-09	2	true	DICPCG	3.1205880820e-02	2.9563065730e-04	54	true
0.028505593       	DILUPBiCGStab	2.0256808890e-03	3.3551840620e-05	1	true	smoothSolver	4.7297308580e-03	5.6697583780e-08	4	1.1146840650e-03	1.9195499510e-08	4	2.3352338220e-02	1.6507418650e-09	6	false	DILUPBiCGStab	1.6853985820e-02	3.8235938730e-08	2	true	DILUPBiCGStab	4.7275125050e-04	5.4706224580e-09	2	true	DICPCG	3.1068589900e-02	2.9460982020e-04	54	true
0.029002082       	DILUPBiCGStab	2.0099586650e-03	3.3328671920e-05	1	true	smoothSolver	4.8029621540e-03	6.2317311920e-08	4	1.3411427880e-03	2.3198150670e-08	4	2.3923519230e-02	1.6347471540e-09	6	false	DILUPBiCGStab	1.6700116530e-02	3.7931418110e-08	2	true	DILUPBiCGStab	4.6490689880e-04	6.5469822440e-09	2	true	DICPCG	3.0950906720e-02	2.9103201490e-04	54	true
0.029502067       	DILUPBiCGStab	2.0089056990e-03	3.3782484570e-05	1	true	smoothSolver	4.8900791970e-03	6.8040026540e-08	4	1.5230126510e-03	2.6803098800e-08	4	2.4642318880e-02	1.6773973430e-09	6	false	DILUPBiCGStab	1.6650018440e-02	3.8812198600e-08	2	true	DILUPBiCGStab	4.6032959840e-04	1.1382756410e-08	2	true	DICPCG	3.0872512490e-02	2.9404821600e-04	54	true
0.030002052       	DILUPBiCGStab	1.9953827840e-03	3.3644313610e-05	1	true	smoothSolver	4.8880001410e-03	6.9687389290e-08	4	1.6280834890e-03	2.8337599030e-08	4	2.5220696710e-02	1.6327933350e-09	6	false	DILUPBiCGStab	1.6500964890e-02	3.8769554720e-08	2	true	DILUPBiCGStab	4.5341353590e-04	1.8456104490e-08	2	true	DICPCG	3.0849751400e-02	2.8814026610e-04	54	true
0.030502038       	DILUPBiCGStab	1.9825578110e-03	3.3527202970e-05	1	true	smoothSolver	4.8129180690e-03	6.9220258980e-08	4	1.6616475500e-03	2.8463251800e-08	4	2.5837770410e-02	1.6192337990e-09	6	false	DILUPBiCGStab	1.6355481340e-02	3.8792252380e-08	2	true	DILUPBiCGStab	4.4695102350e-04	2.2624987060e-08	2	true	DICPCG	3.0873529130e-02	3.0099300020e-04	53	true
0.031002023       	DILUPBiCGStab	1.9702029340e-03	3.3465214720e-05	1	true	smoothSolver	4.6792995210e-03	6.6971111820e-08	4	1.6290736710e-03	2.7381806390e-08	4	2.6538190580e-02	1.6676707810e-09	6	false	DILUPBiCGStab	1.6213129530e-02	3.8899348650e-08	2	true	DILUPBiCGStab	4.4066529950e-04	2.3974098740e-08	2	true	DICPCG	3.0910728010e-02	2.9468847820e-04	52	true
0.031502008       	DILUPBiCGStab	1.9580423620e-03	3.3406257040e-05	1	true	smoothSolver	4.5085789020e-03	6.3466511900e-08	4	1.5400486010e-03	2.5389786670e-08	4	2.7311103570e-02	1.7163320120e-09	6	false	DILUPBiCGStab	1.6075343140e-02	3.9156094270e-08	2	true	DILUPBiCGStab	4.3452778070e-04	2.0891432960e-08	2	true	DICPCG	3.0848483070e-02	2.9355629460e-04	51	true
0.032001994       	DILUPBiCGStab	1.9458132810e-03	3.3362115700e-05	1	true	smoothSolver	4.3409575920e-03	5.9344267580e-08	4	1.4079454410e-03	2.2816918930e-08	4	2.8117287070e-02	1.7517588430e-09	6	false	DILUPBiCGStab	1.5945010210e-02	3.9575409480e-08	2	true	DILUPBiCGStab	4.2861524700e-04	1.4184620910e-08	2	true	DICPCG	3.0684809580e-02	2.8612947470e-04	51	true
0.032501979       	DILUPBiCGStab	1.9332891290e-03	3.3305393950e-05	1	true	smoothSolver	4.2077808310e-03	5.5198413580e-08	4	1.2480058200e-03	2.0017085340e-08	4	2.8963914950e-02	1.7726794250e-09	6	false	DILUPBiCGStab	1.5823431720e-02	4.0018496760e-08	2	true	DILUPBiCGStab	4.2287672300e-04	9.7037272160e-09	2	true	DICPCG	3.0386979880e-02	2.9143198200e-04	51	true