# Solver information
# Time            	H2_solver         	H2_initial        	H2_final          	H2_iters          	H2_converged      	U_solver          	Ux_initial        	Ux_final          	Ux_iters          	Uy_initial        	Uy_final          	Uy_iters          	Uz_initial        	Uz_final          	Uz_iters          	U_converged       	k_solver          	k_initial         	k_final           	k_iters           	k_converged       	omega_solver      	omega_initial     	omega_final       	omega_iters       	omega_converged   	p_rgh_solver      	p_rgh_initial     	p_rgh_final       	p_rgh_iters       	p_rgh_converged   
1.200048e-05      	DILUPBiCGStab	1.0000000000e+00	5.3201572420e-04	1	true	smoothSolver	1.0000000000e+00	4.5083242620e-11	4	1.0000000000e+00	9.7180777950e-12	4	1.0000000000e+00	7.1965503750e-08	2	false	DILUPBiCGStab	1.0000000000e+00	2.1597543290e-09	2	true	DILUPBiCGStab	4.4713842340e-04	1.1006225560e-10	1	true	DICPCG	7.0199880570e-01	1.3836141430e-03	3	true
2.6401747e-05     	DILUPBiCGStab	8.0823200870e-02	3.6109180490e-05	1	true	smoothSolver	3.6202731140e-01	2.3516823780e-08	2	1.7587671280e-01	4.2952295800e-12	4	1.6410401620e-01	1.2926188960e-08	2	false	DILUPBiCGStab	5.1516351150e-01	9.6403434010e-08	1	true	DILUPBiCGStab	2.2864815760e-04	4.6549814690e-08	1	true	DICPCG	5.3706838890e-01	2.0819398080e-03	3	true
4.3683268e-05     	DILUPBiCGStab	4.9691487380e-02	2.5057788060e-05	1	true	smoothSolver	2.7771030830e-01	1.0392457380e-08	2	1.1582758150e-01	8.9294431920e-08	2	1.2207526340e-01	5.6038741000e-09	2	false	DILUPBiCGStab	3.3245764630e-01	8.1640586350e-08	1	true	DILUPBiCGStab	2.4078061120e-04	6.3878042020e-08	1	true	DICPCG	4.4379686360e-01	3.3472944900e-03	3	true
6.4421093e-05     	DILUPBiCGStab	3.7871291380e-02	2.4441536050e-05	1	true	smoothSolver	2.2675862910e-01	7.6177051240e-09	2	9.0114008980e-02	7.4824071090e-08	2	1.0101613530e-01	4.0328345440e-09	2	false	DILUPBiCGStab	2.4881502090e-01	8.7605661660e-08	1	true	DILUPBiCGStab	2.6066460150e-04	8.9083327200e-08	1	true	DICPCG	3.8222826220e-01	1.8177306260e-03	4	true
8.9305451e-05     	DILUPBiCGStab	3.1816630270e-02	2.6517228770e-05	1	true	smoothSolver	1.8971392600e-01	7.0277501120e-09	2	7.5368601160e-02	7.7538465350e-08	2	8.8073130810e-02	3.6714881200e-09	2	false	DILUPBiCGStab	2.0749628900e-01	6.3613703800e-10	2	true	DILUPBiCGStab	2.8685893510e-04	1.4229438300e-10	1	true	DICPCG	3.8177306530e-01	2.5552172530e-03	4	true
0.00011916519     	DILUPBiCGStab	2.8209560580e-02	2.9526129690e-05	1	true	smoothSolver	1.5909755900e-01	7.6998470670e-09	2	6.5920343900e-02	8.4713123320e-08	2	7.9090390520e-02	3.9825128310e-09	2	false	DILUPBiCGStab	1.8493450380e-01	9.1567980620e-10	2	true	DILUPBiCGStab	3.2069725530e-04	2.0713218610e-10	1	true	DICPCG	4.4277152150e-01	2.3612820690e-03	5	true
0.00015499046     	DILUPBiCGStab	2.5815498900e-02	3.5035213870e-05	1	true	smoothSolver	1.3040100930e-01	9.8061080690e-09	2	5.9760801340e-02	9.6152493840e-08	2	7.2284349940e-02	4.7557119850e-09	2	false	DILUPBiCGStab	1.7027382440e-01	1.3559529050e-09	2	true	DILUPBiCGStab	3.6442047190e-04	3.0360291510e-10	1	true	DICPCG	5.0353863090e-01	4.9163537170e-03	5	true
0.00019797152     	DILUPBiCGStab	2.4075828420e-02	4.2306008500e-05	1	true	smoothSolver	1.0110836610e-01	1.3612747950e-08	2	5.6106027090e-02	1.1541779930e-11	4	6.6992121720e-02	5.9414786990e-09	2	false	DILUPBiCGStab	1.5802054730e-01	2.0556240770e-09	2	true	DILUPBiCGStab	4.1949503070e-04	4.5244278320e-10	1	true	DICPCG	5.1847192480e-01	5.0373537730e-03	6	true
0.00024954879     	DILUPBiCGStab	2.2747698190e-02	5.0369991550e-05	1	true	smoothSolver	7.5314026110e-02	2.3330295780e-08	2	5.4452157020e-02	2.2997501310e-11	4	6.2591422460e-02	8.0646647510e-09	2	false	DILUPBiCGStab	1.4605646610e-01	3.2145375370e-09	2	true	DILUPBiCGStab	4.7562668650e-04	6.9445687360e-10	1	true	DICPCG	4.7539119990e-01	3.4260099190e-03	8	true
0.00031142873     	DILUPBiCGStab	2.1686097900e-02	5.8502895270e-05	1	true	smoothSolver	7.9527109380e-02	4.7752768230e-08	2	5.4432795730e-02	4.7903401060e-11	4	5.9855269110e-02	1.1511734350e-08	2	false	DILUPBiCGStab	1.3416076740e-01	5.1578799430e-09	2	true	DILUPBiCGStab	5.3181646080e-04	1.0951548280e-09	1	true	DICPCG	4.0174139440e-01	2.7359433190e-03	9	true
0.000385657       	DILUPBiCGStab	2.0775757090e-02	6.7355134920e-05	1	true	smoothSolver	1.2409860640e-01	3.8796027050e-11	4	5.5797486610e-02	9.6767342730e-11	4	5.8163922920e-02	1.5487262350e-08	2	false	DILUPBiCGStab	1.2232176050e-01	8.4152712680e-09	2	true	DILUPBiCGStab	5.9497857390e-04	1.7679345180e-09	1	true	DICPCG	3.2119257610e-01	2.6994585370e-03	10	true
0.00047475749     	DILUPBiCGStab	1.9980166130e-02	8.1735285940e-05	1	true	smoothSolver	2.3457333030e-01	1.4175646260e-10	4	6.0732703580e-02	2.0505210770e-10	4	5.7315843820e-02	2.4342925240e-08	2	false	DILUPBiCGStab	1.1715795680e-01	1.4268276940e-08	2	true	DILUPBiCGStab	6.7536641800e-04	2.8678740020e-09	1	true	DICPCG	3.3061790350e-01	2.0745580040e-03	12	true
0.00058165893     	DILUPBiCGStab	1.9088914300e-02	1.2439081370e-04	1	true	smoothSolver	3.7933088250e-01	4.3541978230e-10	4	6.6986143910e-02	4.5239096110e-10	4	5.4781091250e-02	4.5025238670e-08	2	false	DILUPBiCGStab	1.1997035910e-01	2.6042808040e-08	2	true	DILUPBiCGStab	7.8184049110e-04	4.7378627300e-09	1	true	DICPCG	3.3714258920e-01	2.5943278920e-03	15	true
0.00070994066     	DILUPBiCGStab	1.8245459440e-02	1.9138667830e-04	1	true	smoothSolver	3.5111588630e-01	9.2902323040e-10	4	7.2641466390e-02	1.0206483290e-09	4	4.9081473770e-02	3.6963047780e-11	4	false	DILUPBiCGStab	1.2728740490e-01	4.5724830310e-08	2	true	DILUPBiCGStab	8.7966936330e-04	7.9005538520e-09	1	true	DICPCG	4.6867779850e-01	3.5493041070e-03	17	true
0.00086387873     	DILUPBiCGStab	1.7455894200e-02	2.6819277270e-04	1	true	smoothSolver	2.3253855560e-01	1.6662874600e-09	4	7.6160321950e-02	2.3580921550e-09	4	4.0359627070e-02	1.1664368580e-10	4	false	DILUPBiCGStab	1.2768537490e-01	7.5742784290e-08	2	true	DILUPBiCGStab	9.7742577140e-04	1.3103519710e-08	1	true	DICPCG	6.0167325210e-01	6.0065337020e-03	18	true
0.0010484898      	DILUPBiCGStab	1.6663522900e-02	3.3735843670e-04	1	true	smoothSolver	1.3722911250e-01	3.0931966240e-09	4	7.6841101340e-02	5.2424213350e-09	4	2.9430844350e-02	2.1260228290e-10	4	false	DILUPBiCGStab	1.2412171930e-01	3.8812913680e-09	2	true	DILUPBiCGStab	1.0947849510e-03	2.1763255200e-08	1	true	DICPCG	6.2798281470e-01	6.0981771020e-03	20	true
0.0012698578      	DILUPBiCGStab	1.5856782920e-02	3.9356218360e-04	1	true	smoothSolver	6.9156793730e-02	6.2838389490e-09	4	7.7427940170e-02	1.0676172750e-08	4	1.8784773840e-02	5.2166447130e-10	4	false	DILUPBiCGStab	1.1711554900e-01	6.9837701210e-09	2	true	DILUPBiCGStab	1.1992398640e-03	3.5741583960e-08	1	true	DICPCG	5.8012362010e-01	5.7233841110e-03	23	true
0.0015352614      	DILUPBiCGStab	1.5042719760e-02	4.4468631330e-04	1	true	smoothSolver	1.1184980310e-01	1.4038089360e-08	4	7.8690568900e-02	1.9528765080e-08	4	3.6221356940e-02	1.4047041340e-09	4	false	DILUPBiCGStab	1.0895985650e-01	1.2701446590e-08	2	true	DILUPBiCGStab	1.2935621890e-03	5.8625050680e-08	1	true	DICPCG	4.4432565380e-01	4.3729876760e-03	29	true
0.0018539175      	DILUPBiCGStab	1.4263554930e-02	5.7904166360e-04	1	true	smoothSolver	2.8978994380e-01	3.9441636270e-08	4	8.2489723760e-02	3.3212079680e-08	4	6.3138108340e-02	3.7722923690e-09	4	false	DILUPBiCGStab	1.0334533350e-01	2.3244442590e-08	2	true	DILUPBiCGStab	1.4172464290e-03	9.7959217930e-08	1	true	DICPCG	3.3172796780e-01	3.2854109650e-03	35	true
0.0022358089      	DILUPBiCGStab	1.3488515410e-02	7.4239075450e-04	1	true	smoothSolver	4.2447773310e-01	8.3727227010e-10	6	8.5025831880e-02	5.7362971380e-08	4	8.7367773180e-02	1.0938099440e-08	4	false	DILUPBiCGStab	1.0348251690e-01	4.1898824410e-08	2	true	DILUPBiCGStab	1.5991777640e-03	6.4033555300e-09	2	true	DICPCG	4.1026491970e-01	3.8986346720e-03	39	true
0.0026947957      	DILUPBiCGStab	1.2870271020e-02	9.4222755350e-04	1	true	smoothSolver	3.3194399690e-01	2.8159482100e-09	6	8.4011014640e-02	1.1659989030e-09	6	9.8259786590e-02	2.6953349590e-08	4	false	DILUPBiCGStab	1.0292642930e-01	7.4720822690e-08	2	true	DILUPBiCGStab	1.7567534530e-03	1.1065741500e-08	2	true	DICPCG	5.3720898250e-01	4.8208467200e-03	44	true
0.0032445426      	DILUPBiCGStab	1.2376645670e-02	1.1650212750e-03	1	true	smoothSolver	1.9530942570e-01	7.0357885930e-09	6	8.0153682090e-02	3.2027788720e-09	6	8.4976784900e-02	4.9040546600e-08	4	false	DILUPBiCGStab	9.7794486000e-02	4.8941186800e-08	3	true	DILUPBiCGStab	1.8741444180e-03	1.8906348330e-08	2	true	DICPCG	5.7349958330e-01	4.9397523160e-03	50	true
0.0038982957      	DILUPBiCGStab	1.1973899140e-02	9.8016690270e-05	1	true	smoothSolver	9.7802423800e-02	1.4982283240e-08	6	7.5025581020e-02	7.2142468490e-09	6	6.2113024860e-02	9.3245347070e-08	4	false	DILUPBiCGStab	9.2290381510e-02	7.6425089870e-08	3	true	DILUPBiCGStab	1.9682350750e-03	3.1650735550e-08	2	true	DICPCG	5.0509599370e-01	4.8892879790e-03	58	true
0.004655002       	DILUPBiCGStab	1.1323262490e-02	1.0799851410e-04	1	true	smoothSolver	2.0716324940e-01	2.5595972950e-08	6	6.7858905960e-02	1.0846229250e-08	6	7.4050766040e-02	2.7235243870e-09	6	false	DILUPBiCGStab	8.5595624720e-02	9.6285153000e-08	3	true	DILUPBiCGStab	2.0244253210e-03	4.8215749130e-08	2	true	DICPCG	3.6058049150e-01	3.2713023460e-03	73	true
0.005513966       	DILUPBiCGStab	1.0773876320e-02	1.1045877200e-04	1	true	smoothSolver	3.4306713020e-01	3.7811342190e-08	6	6.1610700100e-02	1.1277685210e-08	6	7.4465324620e-02	6.9815116780e-09	6	false	DILUPBiCGStab	8.0523260290e-02	1.0766145130e-08	3	true	DILUPBiCGStab	2.0854123720e-03	6.9689333250e-08	2	true	DICPCG	3.1063909940e-01	2.8511561150e-03	99	true
0.0064781092      	DILUPBiCGStab	1.0387730440e-02	1.2407592750e-04	1	true	smoothSolver	3.0649506830e-01	6.7752355180e-08	6	5.7829390660e-02	9.1662542330e-09	6	6.7657770060e-02	2.1771417160e-08	6	false	DILUPBiCGStab	7.7172529600e-02	8.7445765810e-09	3	true	DILUPBiCGStab	2.1240117750e-03	9.5637938580e-08	2	true	DICPCG	3.3258471550e-01	3.0616663340e-03	112	true
0.0075058223      	DILUPBiCGStab	9.7411245400e-03	1.2330345190e-04	1	true	smoothSolver	1.8739968340e-01	7.8943475850e-08	6	5.2599690340e-02	8.5506061640e-09	6	5.7737991570e-02	5.1831599980e-08	6	false	DILUPBiCGStab	7.0089153070e-02	2.0973912700e-08	3	true	DILUPBiCGStab	2.0576389360e-03	5.8124802320e-09	2	true	DICPCG	3.1747084780e-01	3.0533849350e-03	115	true
0.0085689737      	DILUPBiCGStab	9.0471395060e-03	1.1631879210e-04	1	true	smoothSolver	9.8673326740e-02	6.1798495580e-08	6	4.7267646540e-02	8.7775888580e-09	6	5.0866412670e-02	3.4370636350e-09	8	false	DILUPBiCGStab	6.2445455350e-02	5.9343297240e-10	4	true	DILUPBiCGStab	1.9450439190e-03	6.3542193770e-09	2	true	DICPCG	2.5067397110e-01	2.4922118840e-03	118	true
0.0096977518      	DILUPBiCGStab	8.7433330480e-03	1.2298846280e-04	1	true	smoothSolver	1.4795713820e-01	4.1843395180e-09	8	4.3187785760e-02	1.5323612610e-08	6	5.8731920170e-02	7.2860576600e-09	8	false	DILUPBiCGStab	5.8369831410e-02	6.1429227320e-08	3	true	DILUPBiCGStab	1.8947793240e-03	8.0558704100e-09	2	true	DICPCG	1.7630016400e-01	1.7130046470e-03	131	true
0.010934769       	DILUPBiCGStab	8.8047024230e-03	1.4850628900e-04	1	true	smoothSolver	1.9672972850e-01	1.3681044880e-08	8	4.0602726590e-02	4.5073246760e-08	6	6.0496950350e-02	1.4990863620e-08	8	false	DILUPBiCGStab	5.7364007750e-02	4.5431519420e-08	3	true	DILUPBiCGStab	1.9143773980e-03	1.4519583240e-08	2	true	DICPCG	1.3732810200e-01	1.2823960470e-03	142	true
0.011946874       	DILUPBiCGStab	6.8594210770e-03	7.2643648660e-05	1	true	smoothSolver	1.3945089730e-01	6.2245156250e-09	8	3.0685875280e-02	2.8154496210e-08	6	4.6212104450e-02	6.4601873480e-09	8	false	DILUPBiCGStab	4.5809777070e-02	3.5370149210e-08	3	true	DILUPBiCGStab	1.5660594460e-03	9.6893220700e-08	2	true	DICPCG	1.1332194860e-01	1.0751642060e-03	121	true
0.012801759       	DILUPBiCGStab	5.5614542020e-03	3.8159426540e-05	1	true	smoothSolver	8.2389998090e-02	9.4108511740e-08	6	2.4063088140e-02	1.5542720970e-08	6	3.5485893300e-02	2.8419632800e-09	8	false	DILUPBiCGStab	3.8204761690e-02	1.6555099280e-08	3	true	DILUPBiCGStab	1.3321850670e-03	5.9071419270e-08	2	true	DICPCG	9.0894439080e-02	8.3586764840e-04	107	true
0.013528411       	DILUPBiCGStab	4.5862063520e-03	4.0555267250e-04	1	true	smoothSolver	5.5307790360e-02	4.2298164030e-08	6	1.8999216550e-02	7.8750779900e-09	6	2.8926123900e-02	4.9180946700e-08	6	false	DILUPBiCGStab	3.2502082520e-02	8.5767540410e-08	2	true	DILUPBiCGStab	1.1510301840e-03	3.5615527780e-08	2	true	DICPCG	7.0130071630e-02	6.9265218940e-04	92	true
0.014164231       	DILUPBiCGStab	3.9545483450e-03	3.1865069550e-04	1	true	smoothSolver	5.3651978550e-02	2.0801810320e-08	6	1.5590089590e-02	4.2836812720e-09	6	2.5816438380e-02	2.6231620670e-08	6	false	DILUPBiCGStab	2.8545895100e-02	5.0612227280e-08	2	true	DILUPBiCGStab	1.0259082430e-03	2.5176253200e-08	2	true	DICPCG	5.5342051900e-02	5.3465160710e-04	83	true
0.01472894        	DILUPBiCGStab	3.4558891310e-03	2.5418235640e-04	1	true	smoothSolver	4.6891657260e-02	1.0489886600e-08	6	1.2901525790e-02	2.3808270980e-09	6	2.2907124480e-02	1.4581344940e-08	6	false	DILUPBiCGStab	2.5527683990e-02	3.2692954410e-08	2	true	DILUPBiCGStab	9.3007122270e-04	1.9441718330e-08	2	true	DICPCG	4.7794242880e-02	4.5302672240e-04	76	true
0.015236506       	DILUPBiCGStab	3.0514915900e-03	2.0330582770e-04	1	true	smoothSolver	3.5819664420e-02	5.5092021960e-09	6	1.0781607090e-02	1.3594199340e-09	6	2.0151328700e-02	8.4006937030e-09	6	false	DILUPBiCGStab	2.3138637480e-02	2.2289081870e-08	2	true	DILUPBiCGStab	8.5346464400e-04	1.5762722410e-08	2	true	DICPCG	4.3681369320e-02	4.1941563660e-04	69	true
0.015699694       	DILUPBiCGStab	2.7394740530e-03	1.6644363080e-04	1	true	smoothSolver	2.5818578500e-02	3.1337284400e-09	6	9.1599323650e-03	7.6169396100e-08	4	1.7820565600e-02	5.1417637130e-09	6	false	DILUPBiCGStab	2.1307560690e-02	1.6256339270e-08	2	true	DILUPBiCGStab	7.9436226180e-04	1.3926536050e-08	2	true	DICPCG	4.0160495280e-02	3.9770759970e-04	62	true
0.016125454       	DILUPBiCGStab	2.4831974970e-03	1.3830226600e-04	1	true	smoothSolver	1.9529058050e-02	1.8656145180e-09	6	7.8606537380e-03	5.3013616860e-08	4	1.6019086830e-02	3.2232239020e-09	6	false	DILUPBiCGStab	1.9789730680e-02	1.2240330380e-08	2	true	DILUPBiCGStab	7.4424169160e-04	1.3115978190e-08	2	true	DICPCG	3.6581084740e-02	3.2620683730e-04	59	true
0.016521088       	DILUPBiCGStab	2.2796100280e-03	1.1791178530e-04	1	true	smoothSolver	1.7771629040e-02	1.1727655550e-09	6	6.8256776220e-03	3.8526907670e-08	4	1.4923357660e-02	2.1175524510e-09	6	false	DILUPBiCGStab	1.8582366870e-02	9.6350300750e-09	2	true	DILUPBiCGStab	7.0443598640e-04	1.2994064190e-08	2	true	DICPCG	3.3556728060e-02	3.3181617780e-04	54	true
0.016893762       	DILUPBiCGStab	2.1239779090e-03	1.0344877780e-04	1	true	smoothSolver	1.6759981750e-02	8.9410678620e-08	4	6.0052556880e-03	2.9657242300e-08	4	1.4056262770e-02	1.4846009130e-09	6	false	DILUPBiCGStab	1.7670724850e-02	8.0137869790e-09	2	true	DILUPBiCGStab	6.7506726160e-04	1.3555033610e-08	2	true	DICPCG	3.1557254550e-02	2.8847788610e-04	52	true
0.017245907       	DILUPBiCGStab	1.9875654400e-03	9.1288198690e-05	1	true	smoothSolver	1.4890508800e-02	6.6632488880e-08	4	5.2957664310e-03	2.3069838460e-08	4	1.3196254550e-02	1.0506637610e-09	6	false	DILUPBiCGStab	1.6852951720e-02	6.7344362940e-09	2	true	DILUPBiCGStab	6.4880823210e-04	1.3406950480e-08	2	true	DICPCG	3.0207438730e-02	2.9934353720e-04	49	true
0.017580944       	DILUPBiCGStab	1.8742082920e-03	8.1636259580e-05	1	true	smoothSolver	1.2759956220e-02	5.1006245480e-08	4	4.6964517960e-03	1.8444345600e-08	4	1.2460522410e-02	8.8403894720e-08	4	false	DILUPBiCGStab	1.6176597610e-02	5.8028171970e-09	2	true	DILUPBiCGStab	6.2710836600e-04	1.3126161800e-08	2	true	DICPCG	2.9171091470e-02	2.8609956300e-04	47	true
0.017901641       	DILUPBiCGStab	1.7791896410e-03	7.3811974500e-05	1	true	smoothSolver	1.0889129820e-02	4.0278207370e-08	4	4.1840225320e-03	1.5081447110e-08	4	1.1877789860e-02	7.0505535030e-08	4	false	DILUPBiCGStab	1.5613239030e-02	5.1039606980e-09	2	true	DILUPBiCGStab	6.0920379130e-04	1.2616130640e-08	2	true	DICPCG	2.8186020350e-02	2.6550551570e-04	46	true
0.018210281       	DILUPBiCGStab	1.6990336330e-03	6.7394192540e-05	1	true	smoothSolver	9.5225438150e-03	3.2557863390e-08	4	3.7399013430e-03	1.2556383130e-08	4	1.1453201910e-02	5.7874537230e-08	4	false	DILUPBiCGStab	1.5142776440e-02	4.5591961130e-09	2	true	DILUPBiCGStab	5.9456968420e-04	1.1790780910e-08	2	true	DICPCG	2.7264231080e-02	2.6618036990e-04	44	true
0.018507698       	DILUPBiCGStab	1.6253528700e-03	6.1616112430e-05	1	true	smoothSolver	8.7627022170e-03	2.6256356600e-08	4	3.3429244810e-03	1.0429620150e-08	4	1.1167293230e-02	4.8258631420e-08	4	false	DILUPBiCGStab	1.4703870990e-02	4.0726912220e-09	2	true	DILUPBiCGStab	5.8070048210e-04	1.0904470350e-08	2	true	DICPCG	2.6455821800e-02	2.2025720580e-04	44	true
0.018796678       	DILUPBiCGStab	1.5681116190e-03	5.7206051340e-05	1	true	smoothSolver	8.2558732920e-03	2.1791104690e-08	4	3.0093909280e-03	8.9152568970e-09	4	1.0995689470e-02	4.1980039850e-08	4	false	DILUPBiCGStab	1.4391014460e-02	3.7506325470e-09	2	true	DILUPBiCGStab	5.7086733970e-04	1.0625323580e-08	2	true	DICPCG	2.5908614020e-02	2.5765436750e-04	42	true
0.019077658       	DILUPBiCGStab	1.5144604220e-03	5.3116573930e-05	1	true	smoothSolver	7.6691152310e-03	1.7973412050e-08	4	2.7070541750e-03	7.5620584710e-09	4	1.0822494080e-02	3.6563298370e-08	4	false	DILUPBiCGStab	1.4099993040e-02	3.4451742020e-09	2	true	DILUPBiCGStab	5.6131534660e-04	1.0270252320e-08	2	true	DICPCG	2.5454746980e-02	2.2793963430e-04	42	true
0.019351971       	DILUPBiCGStab	1.4688843640e-03	4.9661208800e-05	1	true	smoothSolver	7.0516833930e-03	1.4992785980e-08	4	2.4434752850e-03	6.4601521620e-09	4	1.0686258070e-02	3.2885442090e-08	4	false	DILUPBiCGStab	1.3871225690e-02	3.2107546170e-09	2	true	DILUPBiCGStab	5.5368841130e-04	1.0522695240e-08	2	true	DICPCG	2.5119664690e-02	2.4797672620e-04	40	true
0.019620798       	DILUPBiCGStab	1.4303569970e-03	4.6736502390e-05	1	true	smoothSolver	6.4704214760e-03	1.2656227970e-08	4	2.2152707600e-03	5.5555711310e-09	4	1.0587040510e-02	3.0184606170e-08	4	false	DILUPBiCGStab	1.3696837070e-02	9.8805093700e-08	2	true	DILUPBiCGStab	5.4771701030e-04	1.1103699630e-08	2	true	DICPCG	2.4897607680e-02	2.2685102270e-04	40	true
0.019884336       	DILUPBiCGStab	1.3936143500e-03	4.3968599960e-05	1	true	smoothSolver	5.9477991680e-03	1.0665968180e-08	4	2.0149691070e-03	4.7254370630e-09	4	1.0489054870e-02	2.7629736420e-08	4	false	DILUPBiCGStab	1.3529137460e-02	9.5384345050e-08	2	true	DILUPBiCGStab	5.4158795450e-04	1.1850411780e-08	2	true	DICPCG	2.4711835900e-02	2.4372519370e-04	39	true
0.02014361        	DILUPBiCGStab	1.3628322060e-03	4.1620545520e-05	1	true	smoothSolver	5.5368463610e-03	9.1321877730e-09	4	1.8502599700e-03	4.0393877970e-09	4	1.0425138350e-02	2.5581159970e-08	4	false	DILUPBiCGStab	1.3393150990e-02	9.3430199620e-08	2	true	DILUPBiCGStab	5.3670159510e-04	1.2421176090e-08	2	true	DICPCG	2.4625588870e-02	2.4142965980e-04	38	true
0.02039956        	DILUPBiCGStab	1.3374430470e-03	3.9629353750e-05	1	true	smoothSolver	5.2298875780e-03	7.9423240210e-09	4	1.7215538600e-03	3.4762568190e-09	4	1.0396238250e-02	2.3926241640e-08	4	false	DILUPBiCGStab	1.3287945060e-02	9.2954658490e-08	2	true	DILUPBiCGStab	5.3296367200e-04	1.2421786320e-08	2	true	DICPCG	2.4629955930e-02	2.2273976450e-04	38	true
0.020653065       	DILUPBiCGStab	1.3170256780e-03	3.7945571460e-05	1	true	smoothSolver	4.9807254580e-03	7.0058728520e-09	4	1.6321002520e-03	3.0132226480e-09	4	1.0391198300e-02	2.2590850070e-08	4	false	DILUPBiCGStab	1.3215590110e-02	9.4216866690e-08	2	true	DILUPBiCGStab	5.3028669280e-04	1.1555907930e-08	2	true	DICPCG	2.4698001030e-02	2.4289488080e-04	37	true
0.020904163       	DILUPBiCGStab	1.2972327900e-03	3.6301561510e-05	1	true	smoothSolver	4.7388882010e-03	6.1819696250e-09	4	1.5653909510e-03	2.5945315020e-09	4	1.0369918160e-02	2.1213219220e-08	4	false	DILUPBiCGStab	1.3116744930e-02	9.7158997940e-08	2	true	DILUPBiCGStab	5.2691182650e-04	1.0911539250e-08	2	true	DICPCG	2.4771677700e-02	2.2646261030e-04	37	true
0.021153677       	DILUPBiCGStab	1.2819980530e-03	3.4919527260e-05	1	true	smoothSolver	4.5137918260e-03	5.5919595860e-09	4	1.5119546240e-03	2.2557403110e-09	4	1.0361974800e-02	2.0084265270e-08	4	false	DILUPBiCGStab	1.3000627040e-02	2.6769762320e-09	2	true	DILUPBiCGStab	5.2445004690e-04	1.0407663740e-08	2	true	DICPCG	2.4896235250e-02	2.1361652800e-04	37	true
0.021401621       	DILUPBiCGStab	1.2672047630e-03	3.3558203010e-05	1	true	smoothSolver	4.3012170540e-03	5.1735269120e-09	4	1.4661206270e-03	1.9491165340e-09	4	1.0336419170e-02	1.8890068210e-08	4	false	DILUPBiCGStab	1.2860363110e-02	2.8655954350e-09	2	true	DILUPBiCGStab	5.2140454430e-04	9.5429185530e-09	2	true	DICPCG	2.5028991840e-02	2.3980394620e-04	36	true
0.021648786       	DILUPBiCGStab	1.2566982740e-03	3.2425578380e-05	1	true	smoothSolver	4.1231024370e-03	4.9429424630e-09	4	1.4309627890e-03	1.7007975680e-09	4	1.0324498220e-02	1.7895299220e-08	4	false	DILUPBiCGStab	1.2751135160e-02	3.2043424270e-09	2	true	DILUPBiCGStab	5.1926120520e-04	8.9649482680e-09	2	true	DICPCG	2.5250108610e-02	2.3010182240e-04	36	true
0.02189595        	DILUPBiCGStab	1.2503546670e-03	3.1504197080e-05	1	true	smoothSolver	3.9836889040e-03	4.8699656950e-09	4	1.4055385540e-03	1.5062161530e-09	4	1.0327767540e-02	1.7067197060e-08	4	false	DILUPBiCGStab	1.2673974700e-02	3.6320584770e-09	2	true	DILUPBiCGStab	5.1783091260e-04	8.4929367740e-09	2	true	DICPCG	2.5584357530e-02	2.2658313130e-04	36	true
0.022143115       	DILUPBiCGStab	1.2442582540e-03	3.0577741330e-05	1	true	smoothSolver	3.8731338560e-03	4.8616059090e-09	4	1.3853586720e-03	1.3568994360e-09	4	1.0317358170e-02	1.6143343120e-08	4	false	DILUPBiCGStab	1.2589992140e-02	3.9669990380e-09	2	true	DILUPBiCGStab	5.1551377950e-04	8.2784240750e-09	2	true	DICPCG	2.5957302290e-02	2.3221037250e-04	36	true
0.022391067       	DILUPBiCGStab	1.2422683660e-03	2.9838579050e-05	1	true	smoothSolver	3.7988544080e-03	4.9722647830e-09	4	1.3747493290e-03	1.2622729640e-09	4	1.0323817880e-02	1.5368293980e-08	4	false	DILUPBiCGStab	1.2543127160e-02	4.2711842080e-09	2	true	DILUPBiCGStab	5.1410358050e-04	7.9260639510e-09	2	true	DICPCG	2.6413720090e-02	2.4091952890e-04	36	true
0.022640613       	DILUPBiCGStab	1.2444129800e-03	2.9276102570e-05	1	true	smoothSolver	3.7550951560e-03	5.1860463580e-09	4	1.3770801090e-03	1.2030495350e-09	4	1.0346131500e-02	1.4743343210e-08	4	false	DILUPBiCGStab	1.2528849570e-02	4.4968756670e-09	2	true	DILUPBiCGStab	5.1366676870e-04	8.0314638140e-09	2	true	DICPCG	2.6946833330e-02	2.5564801610e-04	36	true
0.02289178        	DILUPBiCGStab	1.2468362400e-03	2.8699109850e-05	1	true	smoothSolver	3.7270050430e-03	5.4333423520e-09	4	1.4149532900e-03	1.2380541810e-09	4	1.0353221270e-02	1.3996621710e-08	4	false	DILUPBiCGStab	1.2513601030e-02	4.5264356010e-09	2	true	DILUPBiCGStab	5.1299174520e-04	7.4006267440e-09	2	true	DICPCG	2.7490620360e-02	2.7229650950e-04	36	true
0.023144594       	DILUPBiCGStab	1.2495469620e-03	2.8104404810e-05	1	true	smoothSolver	3.7149839740e-03	5.7085825750e-09	4	1.4875919190e-03	1.3687257020e-09	4	1.0345532420e-02	1.3113936020e-08	4	false	DILUPBiCGStab	1.2496436240e-02	4.4297998440e-09	2	true	DILUPBiCGStab	5.1167778710e-04	7.0565092710e-09	2	true	DICPCG	2.8030829640e-02	2.5802840200e-04	37	true
0.023399928       	DILUPBiCGStab	1.2566083870e-03	2.7682861000e-05	1	true	smoothSolver	3.7353963980e-03	6.1032737890e-09	4	1.5706459650e-03	1.5330697610e-09	4	1.0356239110e-02	1.2277489970e-08	4	false	DILUPBiCGStab	1.2512887630e-02	4.3523672410e-09	2	true	DILUPBiCGStab	5.1084656490e-04	6.9724902000e-09	2	true	DICPCG	2.8616319710e-02	2.8504735130e-04	37	true
0.023658712       	DILUPBiCGStab	1.2682358910e-03	2.7436261450e-05	1	true	smoothSolver	3.7886489970e-03	6.6294310120e-09	4	1.6609649960e-03	1.7531943760e-09	4	1.0387823780e-02	1.1452370950e-08	4	false	DILUPBiCGStab	1.2564720800e-02	4.2882864990e-09	2	true	DILUPBiCGStab	5.1095415780e-04	7.3630639110e-09	2	true	DICPCG	2.9253419760e-02	2.7620670090e-04	38	true
0.023921053       	DILUPBiCGStab	1.2804435130e-03	2.7174597700e-05	1	true	smoothSolver	3.8629549810e-03	7.2147624600e-09	4	1.7532994580e-03	2.0149110800e-09	4	1.0410764800e-02	1.0438127760e-08	4	false	DILUPBiCGStab	1.2611147300e-02	4.1873227290e-09	2	true	DILUPBiCGStab	5.1077673340e-04	8.1014147820e-09	2	true	DICPCG	2.9868952470e-02	2.7419878830e-04	40	true
0.024187063       	DILUPBiCGStab	1.2932639350e-03	2.6900093470e-05	1	true	smoothSolver	3.9518983530e-03	7.8467754420e-09	4	1.8406211290e-03	2.2957579250e-09	4	1.0429136350e-02	9.2390826330e-09	4	false	DILUPBiCGStab	1.2652846310e-02	4.1536356750e-09	2	true	DILUPBiCGStab	5.1043347820e-04	9.2081629450e-09	2	true	DICPCG	3.0463882350e-02	3.0157641670e-04	42	true
0.02445686        	DILUPBiCGStab	1.3067385110e-03	2.6618409470e-05	1	true	smoothSolver	4.0452251850e-03	8.5022770850e-09	4	1.9173209290e-03	2.5757714450e-09	4	1.0452158960e-02	7.9514786710e-09	4	false	DILUPBiCGStab	1.2690716720e-02	4.3735868010e-09	2	true	DILUPBiCGStab	5.1008434190e-04	1.0248661900e-08	2	true	DICPCG	3.1029316570e-02	3.0353899160e-04	44	true
0.024730567       	DILUPBiCGStab	1.3208977120e-03	2.6332751980e-05	1	true	smoothSolver	4.1362005260e-03	9.1717686330e-09	4	1.9806405800e-03	2.8453130580e-09	4	1.0496825040e-02	6.8103728510e-09	4	false	DILUPBiCGStab	1.2721425320e-02	5.9738927660e-09	2	true	DILUPBiCGStab	5.0984489970e-04	1.0828339360e-08	2	true	DICPCG	3.1559576590e-02	3.0368166710e-04	45	true
0.025006279       	DILUPBiCGStab	1.3262317070e-03	2.5648451730e-05	1	true	smoothSolver	4.1939407100e-03	9.4929576370e-09	4	2.0150521150e-03	2.9905795030e-09	4	1.0511137590e-02	5.5986677820e-09	4	false	DILUPBiCGStab	1.2650190200e-02	1.4693929250e-08	2	true	DILUPBiCGStab	5.0595442670e-04	1.1361697880e-08	2	true	DICPCG	3.1919752540e-02	2.6631292000e-04	47	true
0.025285066       	DILUPBiCGStab	1.3367654540e-03	2.5170752240e-05	1	true	smoothSolver	4.2568017380e-03	9.9328179180e-09	4	2.0392704610e-03	3.1508682340e-09	4	1.0686026370e-02	5.3665372760e-09	4	false	DILUPBiCGStab	1.2609278130e-02	3.2184753470e-10	3	true	DILUPBiCGStab	5.0382489330e-04	1.1676066720e-08	2	true	DICPCG	3.2311641760e-02	2.8552959460e-04	47	true
0.02556595        	DILUPBiCGStab	1.3428891320e-03	2.4508036860e-05	1	true	smoothSolver	4.2965906880e-03	1.0140989250e-08	4	2.0394728260e-03	3.2171412450e-09	4	1.0878347550e-02	5.2300801710e-09	4	false	DILUPBiCGStab	1.2522191720e-02	2.6485994990e-08	2	true	DILUPBiCGStab	5.0008420450e-04	9.7986544240e-09	2	true	DICPCG	3.2597206150e-02	3.0155052270e-04	47	true
0.025850049       	DILUPBiCGStab	1.3543968150e-03	2.4061561020e-05	1	true	smoothSolver	4.3399588040e-03	1.0485534740e-08	4	2.0297905250e-03	3.3013122500e-09	4	1.1127832320e-02	5.8605973860e-09	4	false	DILUPBiCGStab	1.2471478620e-02	1.7222439380e-08	2	true	DILUPBiCGStab	4.9804529740e-04	1.4595671350e-08	2	true	DICPCG	3.2917826240e-02	3.2368725250e-04	47	true
0.026136342       	DILUPBiCGStab	1.3613034460e-03	2.3441936740e-05	1	true	smoothSolver	4.3562978020e-03	1.0584877160e-08	4	1.9967617800e-03	3.2875222330e-09	4	1.1345418510e-02	6.8216869150e-09	4	false	DILUPBiCGStab	1.2369492180e-02	1.3621811400e-08	2	true	DILUPBiCGStab	4.9458494250e-04	3.3225999820e-08	2	true	DICPCG	3.3184695360e-02	2.9407667930e-04	48	true
0.026424872       	DILUPBiCGStab	1.3685625870e-03	2.2855203810e-05	1	true	smoothSolver	4.3588975740e-03	1.0639074610e-08	4	1.9496706600e-03	3.2381284480e-09	4	1.1562266970e-02	7.7427392210e-09	4	false	DILUPBiCGStab	1.2255681350e-02	1.2180364110e-08	2	true	DILUPBiCGStab	4.9110823240e-04	1.9479859620e-08	2	true	DICPCG	3.3534751510e-02	3.0477648840e-04	48	true
0.026716837       	DILUPBiCGStab	1.3814713040e-03	2.2499735560e-05	1	true	smoothSolver	4.3637062020e-03	1.0869546070e-08	4	1.8972723030e-03	3.2185986850e-09	4	1.1817673050e-02	8.8171900970e-09	4	false	DILUPBiCGStab	1.2167328020e-02	1.1664203560e-08	2	true	DILUPBiCGStab	4.8950674040e-04	4.1288021590e-08	2	true	DICPCG	3.3971113440e-02	3.2471510080e-04	48	true
0.027011147       	DILUPBiCGStab	1.3894423290e-03	2.1985685940e-05	1	true	smoothSolver	4.3440460000e-03	1.0879696580e-08	4	1.8275252030e-03	3.1147272140e-09	4	1.2026993400e-02	9.9715327850e-09	4	false	DILUPBiCGStab	1.2021853230e-02	1.0754345880e-08	2	true	DILUPBiCGStab	4.8621425420e-04	2.5168275860e-08	2	true	DICPCG	3.4324091390e-02	3.3712268040e-04	48	true
0.02730785        	DILUPBiCGStab	1.3977007530e-03	2.1515522400e-05	1	true	smoothSolver	4.3177202260e-03	1.0893024930e-08	4	1.7512232570e-03	2.9997028520e-09	4	1.2233982340e-02	1.1251840660e-08	4	false	DILUPBiCGStab	1.1871084830e-02	1.0188644630e-08	2	true	DILUPBiCGStab	4.8331960790e-04	2.3452430800e-08	2	true	DICPCG	3.4665369110e-02	2.8833016850e-04	49	true
0.027606994       	DILUPBiCGStab	1.4062170390e-03	2.1085456730e-05	1	true	smoothSolver	4.2895407400e-03	1.0926943960e-08	4	1.6719709990e-03	2.8842960370e-09	4	1.2438437240e-02	1.2425439350e-08	4	false	DILUPBiCGStab	1.1717106260e-02	9.8138094240e-09	2	true	DILUPBiCGStab	4.8068318890e-04	2.1133571490e-08	2	true	DICPCG	3.5005746060e-02	3.1132380630e-04	49	true
0.027908632       	DILUPBiCGStab	1.4149488900e-03	2.0700163530e-05	1	true	smoothSolver	4.2636436350e-03	1.1002779920e-08	4	1.5940884020e-03	2.7794719530e-09	4	1.2649686380e-02	1.3507216660e-08	4	false	DILUPBiCGStab	1.1563568920e-02	9.5114395100e-09	2	true	DILUPBiCGStab	4.7858649290e-04	1.7910257860e-08	2	true	DICPCG	3.5331920110e-02	3.3869950160e-04	49	true
0.028211537       	DILUPBiCGStab	1.4180432070e-03	2.0159100750e-05	1	true	smoothSolver	4.2269049820e-03	1.0916011540e-08	4	1.5158984820e-03	2.6464505900e-09	4	1.2819216030e-02	1.4247665290e-08	4	false	DILUPBiCGStab	1.1370014690e-02	9.2527923240e-09	2	true	DILUPBiCGStab	4.7494936490e-04	1.5429637200e-08	2	true	DICPCG	3.5572064350e-02	3.0994068720e-04	50	true