# Region type :   sampledSurface planeZ6
# Faces           : 654
# Area            : 8.2959466307e-02
# Scale factor    : 1.0000000000e+00
# Time            	areaAverage(H2)
0.0022358089      	0.0000000000e+00
0.013973227       	0.0000000000e+00
0.019638165       	0.0000000000e+00
0.025756229       	3.8828619107e-320
0.032437003       	5.9720550554e-269
0.042074845       	6.3346352131e-216
0.051415835       	1.0923108405e-195
0.058627007       	2.8258583661e-183
0.064474227       	1.0379221403e-174
0.070061843       	1.1477982718e-166
0.075653834       	1.1048239458e-158
0.081757432       	6.5443732554e-150
0.088751534       	7.4613255476e-140
0.096490478       	2.1729034019e-129
0.10325145        	6.5196861525e-122
0.10917447        	2.3535344536e-116
0.11517175        	1.6042423261e-111
0.12273934        	1.3474692184e-106
0.13264856        	4.9587552150e-102
0.14118241        	2.7904586392e-99
0.14894287        	3.3069078363e-97
0.15978505        	1.8615894981e-94
0.17236804        	3.4174673972e-91
0.18161825        	9.4405849902e-89
0.19190104        	6.2189353389e-86
0.20124481        	7.3501233777e-83
0.20942872        	2.7939295077e-79
0.21782208        	1.2861921014e-74
0.22513243        	4.0840234324e-70
0.23144841        	2.9875840754e-66
0.23678045        	3.1871220707e-63
0.24152719        	1.0392054346e-60
0.24615896        	2.0155449711e-58
0.25082269        	2.9685344789e-56
0.25550476        	3.4295820917e-54
0.26030258        	3.5681393323e-52
0.26537553        	3.8756556241e-50
0.27065864        	3.7415705992e-48
0.2760049         	2.7297571353e-46
0.28149586        	1.5863994040e-44
0.28716602        	7.2640149730e-43
0.29287001        	2.2652493469e-41
0.298574          	4.5348666312e-40
0.30458696        	6.8491411006e-39
0.3110402         	8.5778593340e-38
0.31811735        	1.0661786753e-36
0.32563671        	1.3541043482e-35
0.33326774        	1.6097821493e-34
0.34059372        	1.5606735376e-33
0.34722061        	1.1802916257e-32
0.35336884        	8.0674925777e-32
0.3593049         	5.8301619266e-31
0.36520274        	5.2061491568e-30
0.37110058        	6.0550780663e-29
0.37692528        	8.6225234538e-28
0.3825859         	1.3595144266e-26
0.38804735        	2.1597811502e-25
0.39329134        	3.0924089367e-24
0.39845185        	4.1405039708e-23
0.40348437        	4.9339687592e-22
0.40846028        	5.3631356422e-21
0.41349084        	5.5684678204e-20
0.41861852        	5.6559357269e-19
0.42384034        	5.5391175419e-18
0.4291273         	4.9980780887e-17
0.43449884        	4.0460023885e-16
0.43997004        	2.8414637219e-15
0.44551668        	1.6620798969e-14
0.45114719        	7.9627377925e-14
0.45692748        	3.1663885798e-13
0.46292474        	1.0721720506e-12
0.46923893        	3.2210869283e-12
0.47602505        	9.0368229707e-12
0.48323001        	2.4078246470e-11
0.49068334        	6.0612659004e-11
0.49813667        	1.4146760306e-10
0.50515232        	3.0039976082e-10
0.51167868        	6.0306343112e-10
0.51795111        	1.2168581801e-09
0.52414428        	2.6019269068e-09
0.53028672        	6.0347083709e-09
0.53631018        	1.4975686533e-08
0.542148          	3.8569435684e-08
0.54774941        	9.9471839628e-08
0.55313061        	2.4963561938e-07
0.55835795        	6.0326706881e-07
0.56348498        	1.3946038385e-06
0.56859197        	3.0938248147e-06
0.57372784        	6.5921137001e-06
0.57893024        	1.3498813474e-05
0.58418742        	2.6321591760e-05
0.58945828        	4.8232966828e-05
0.59472914        	8.2498868063e-05
0.6               	1.3147449135e-04
0.6054885         	1.9848153359e-04
0.61107147        	2.8111332570e-04
0.61678687        	3.7654303942e-04
0.62271278        	4.8231219530e-04
0.62897814        	5.9768163220e-04
0.6356405         	7.2174584769e-04
0.64263103        	8.5224354599e-04
0.64982026        	9.8627891198e-04
0.65695237        	1.1196251273e-03
0.66385803        	1.2526230008e-03
0.67046961        	1.3911041673e-03
0.67686613        	1.5473106510e-03
0.68315466        	1.7395831155e-03
0.68937681        	1.9911131782e-03
0.69544721        	2.3248412077e-03
0.70144256        	2.7790841739e-03
0.70706338        	3.3630129391e-03
0.71248278        	4.1212560318e-03
0.71776111        	5.0969283625e-03
0.72295491        	6.3344907246e-03
0.72813209        	7.8759953023e-03
0.73334913        	9.7537523047e-03
0.73860166        	1.1957203546e-02
0.74387191        	1.4418656786e-02
0.74916039        	1.7019620603e-02
0.75451334        	1.9615370793e-02
0.75994304        	2.2020031282e-02
0.76545687        	2.4060501818e-02
0.77106544        	2.5627846041e-02
0.77681289        	2.6704020823e-02
0.78279928        	2.7334676407e-02
0.78910834        	2.7579636366e-02
0.79570934        	2.7504260695e-02
0.80243913        	2.7191248663e-02
0.80945435        	2.6705550076e-02
0.81641393        	2.6132601258e-02
0.82320171        	2.5530790024e-02
0.82977163        	2.4931583305e-02
0.83616721        	2.4339779459e-02
0.84243905        	2.3743138056e-02
0.84859479        	2.3123799164e-02
0.85459515        	2.2466286810e-02
0.86038822        	2.1759518527e-02
0.86596529        	2.0993456959e-02
0.87137052        	2.0174105873e-02
0.87666441        	1.9349394936e-02
0.88190836        	1.8632390944e-02
0.88715231        	1.8198806976e-02
0.89239627        	1.8245444639e-02
0.89764022        	1.8912355866e-02
0.90291502        	2.0226241771e-02
0.90824922        	2.2075146164e-02
0.9136463         	2.4224304954e-02
0.91911879        	2.6389703721e-02
0.92468762        	2.8304079711e-02
0.93037024        	2.9769389062e-02
0.93621771        	3.0696248130e-02
0.94232746        	3.1081291659e-02
0.94874585        	3.0966631344e-02
0.95542725        	3.0438682260e-02
0.96227067        	2.9619528834e-02
0.96913054        	2.8633458608e-02
0.9759227         	2.7550194205e-02
0.98256698        	2.6376404371e-02
0.9890545         	2.5056534593e-02
0.99549303        	2.3477071887e-02
1.0018528         	2.1567608493e-02
1.0079335         	1.9424928633e-02
1.0138431         	1.7184988735e-02
1.0195491         	1.5104162753e-02
1.0250798         	1.3391089115e-02
1.0304763         	1.2171009180e-02
1.0357941         	1.1496060241e-02
1.0411004         	1.1377765555e-02
1.046424          	1.1811070079e-02
1.0517549         	1.2772131373e-02
1.0570859         	1.4213870394e-02
1.0624295         	1.6063523842e-02
1.0678175         	1.8220701303e-02
1.073265          	2.0536007539e-02
1.0788036         	2.2818900097e-02
1.0844349         	2.4849383193e-02
1.0901893         	2.6457690220e-02
1.0961352         	2.7552363109e-02
1.1022084         	2.8098729305e-02
1.1086814         	2.8143620538e-02
1.1153478         	2.7749069183e-02
1.1220917         	2.7035535247e-02
1.1288263         	2.6112104925e-02
1.1354891         	2.5037681766e-02
1.1420382         	2.3816851165e-02
1.1484674         	2.2413195384e-02
1.1547725         	2.0787667907e-02
1.160946          	1.8948598035e-02
1.1669735         	1.6988129494e-02
1.1728243         	1.5077442002e-02
1.1784865         	1.3400730713e-02
1.1840079         	1.2087892466e-02
1.189429          	1.1220678845e-02
1.19485           	1.0836877527e-02
