# Region type :   patch main_inlet
# Faces           : 348
# Area            : 8.2964479394e-02
# Scale factor    : 1.0000000000e+00
# Time            	areaAverage(p_rgh)
0.0022270965      	6.9448874526e+06
0.0096097579      	6.9455213173e+06
0.013010141       	6.9457328947e+06
0.015529156       	6.9470597066e+06
0.018148069       	6.9489363486e+06
0.020857049       	6.9501575704e+06
0.02347722        	6.9521032282e+06
0.026041769       	6.9544568008e+06
0.028605501       	6.9551672498e+06
0.031064934       	6.9544867766e+06
0.033272514       	6.9541864449e+06
0.035314692       	6.9542193590e+06
0.037336227       	6.9541442533e+06
0.039372081       	6.9540392912e+06
0.041394097       	6.9541707595e+06
0.043402323       	6.9548321357e+06
0.045418211       	6.9559480038e+06
0.047440984       	6.9568546409e+06
0.049404863       	6.9570753918e+06
0.051270606       	6.9569979713e+06
0.053080282       	6.9570127401e+06
0.05487189        	6.9570706477e+06
0.056648489       	6.9570475834e+06
0.058411791       	6.9569848583e+06
0.060178796       	6.9571022180e+06
0.061961981       	6.9575810396e+06
0.063737396       	6.9581827050e+06
0.06546678        	6.9584597381e+06
0.067149859       	6.9583165401e+06
0.068799377       	6.9578536048e+06
0.070418288       	6.9569657569e+06
0.07201351        	6.9552978787e+06
0.073605298       	6.9523240150e+06
0.075207256       	6.9473465673e+06
0.076810873       	6.9395734165e+06
0.078401693       	6.9284606511e+06
0.079973704       	6.9143768860e+06
0.081525887       	6.8990209301e+06
0.08305684        	6.8849133989e+06
0.084573195       	6.8742086405e+06
0.086091001       	6.8678926744e+06
0.08761111        	6.8655702936e+06
0.08913122        	6.8656122573e+06
0.090640976       	6.8661803972e+06
0.092133166       	6.8662805782e+06
0.093607826       	6.8658787975e+06
0.095066271       	6.8652292561e+06
0.096517367       	6.8643484091e+06
0.097968464       	6.8631033317e+06
0.099419561       	6.8615546043e+06
0.10086877        	6.8599770720e+06
0.10230429        	6.8586054202e+06
0.10372716        	6.8575001492e+06
0.10514173        	6.8566669443e+06
0.1065501         	6.8561244335e+06
0.1079494         	6.8558654328e+06
0.1093265         	6.8558466158e+06
0.11066394        	6.8560388980e+06
0.11195448        	6.8564144960e+06
0.11319772        	6.8568783472e+06
0.11438549        	6.8572842556e+06
0.11550788        	6.8575345258e+06
0.11655434        	6.8576256350e+06
0.11751382        	6.8576112206e+06
0.11839213        	6.8575481305e+06
0.11920705        	6.8574737240e+06
0.11997595        	6.8574117424e+06
0.12071176        	6.8573804040e+06
0.12142366        	6.8573944088e+06
0.12211744        	6.8574636608e+06
0.12279585        	6.8575926555e+06
0.12345995        	6.8577831618e+06
0.12411069        	6.8580396832e+06
0.12474941        	6.8583740787e+06
0.12537756        	6.8588056204e+06
0.12599666        	6.8593551850e+06
0.12660865        	6.8600353592e+06
0.12721581        	6.8608426561e+06
0.12782027        	6.8617606713e+06
0.1284235         	6.8627749149e+06
0.1290265         	6.8638810672e+06
0.12962963        	6.8650668005e+06
0.1302331         	6.8662859730e+06
0.13083662        	6.8674600076e+06
0.13143976        	6.8685110505e+06
0.13204176        	6.8693908792e+06
0.13264225        	6.8700888313e+06
0.13324123        	6.8706217127e+06
0.13383893        	6.8710179926e+06
0.13443587        	6.8713076615e+06
0.13503282        	6.8715223292e+06
0.13563073        	6.8716952588e+06
0.13623037        	6.8718531535e+06
0.13683211        	6.8720080197e+06
0.13743596        	6.8721575435e+06
0.13804175        	6.8722910591e+06
0.13864917        	6.8723938457e+06
0.13925774        	6.8724490448e+06
0.13986691        	6.8724410965e+06
0.14047644        	6.8723619394e+06
0.14108623        	6.8722171833e+06
0.14169673        	6.8720274748e+06
0.14230845        	6.8718223785e+06
0.14292208        	6.8716307558e+06
0.1435384         	6.8714762363e+06
0.14415801        	6.8713787301e+06
0.14478124        	6.8713536421e+06
0.14540791        	6.8714065241e+06
0.14603771        	6.8715315856e+06
0.14667028        	6.8717185173e+06
0.14730514        	6.8719609392e+06
0.14794187        	6.8722613414e+06
0.14858019        	6.8726348727e+06
0.1492202         	6.8731125862e+06
0.14986238        	6.8737396485e+06
0.15050729        	6.8745679646e+06
0.15115545        	6.8756493667e+06
0.15180719        	6.8770324759e+06
0.15246262        	6.8787610767e+06
0.15312143        	6.8808710729e+06
0.15378298        	6.8833877241e+06
0.15444654        	6.8863264501e+06
0.15511149        	6.8896971784e+06
0.15577729        	6.8935044869e+06
0.15644368        	6.8977437924e+06
0.15711093        	6.9023977776e+06
0.15777953        	6.9074282579e+06
0.15845013        	6.9127686275e+06
0.1591232         	6.9183161281e+06
0.159799          	6.9239327936e+06
0.16047756        	6.9294551785e+06
0.16115846        	6.9347052005e+06
0.16184106        	6.9395097505e+06
0.16252471        	6.9437235384e+06
0.163209          	6.9472503005e+06
0.16389358        	6.9500502537e+06
0.16457878        	6.9521412809e+06
0.16526494        	6.9535873214e+06
0.16595274        	6.9544874387e+06
0.16664276        	6.9549597651e+06
0.16733523        	6.9551264898e+06
0.1680302         	6.9551016126e+06
0.1687274         	6.9549806171e+06
0.16942615        	6.9548331297e+06
0.17012595        	6.9547013566e+06
0.17082639        	6.9546061819e+06
0.17152727        	6.9545559182e+06
0.17222865        	6.9545522251e+06
0.17293106        	6.9545933764e+06
0.17363485        	6.9546765573e+06
0.17434051        	6.9547981854e+06
0.17504818        	6.9549514079e+06
0.1757576         	6.9551228553e+06
0.17646837        	6.9552904022e+06
0.17717989        	6.9554223350e+06
0.17789168        	6.9554797687e+06
0.17860256        	6.9554238718e+06
0.17931344        	6.9552249111e+06
0.18002369        	6.9548684756e+06
0.18073416        	6.9543555486e+06
0.18144508        	6.9537011365e+06
0.18215703        	6.9529309992e+06
0.18287012        	6.9520790554e+06
0.18358402        	6.9511835883e+06
0.18429932        	6.9502818309e+06
0.18501461        	6.9494092113e+06
0.1857299         	6.9485891940e+06
0.18644519        	6.9478306344e+06
0.18716049        	6.9471282262e+06
0.18787578        	6.9464666575e+06
0.18859107        	6.9458266942e+06
0.18930786        	6.9451902723e+06
0.19002546        	6.9445489411e+06
0.19074426        	6.9439036306e+06
0.19146455        	6.9432662404e+06
0.19218484        	6.9426586004e+06
0.19290514        	6.9421037539e+06
0.19362543        	6.9416202952e+06
0.19434572        	6.9412173029e+06
0.19506601        	6.9408926480e+06
0.1957863         	6.9406341664e+06
0.19650659        	6.9404225132e+06
0.19722688        	6.9402352038e+06
0.19794717        	6.9400510492e+06
0.19866746        	6.9398530995e+06
0.19938775        	6.9396289841e+06
0.20010846        	6.9393692946e+06
0.20083175        	6.9390646525e+06
0.20155508        	6.9387059868e+06
0.20227846        	6.9382799249e+06
0.20300213        	6.9377695990e+06
0.20372631        	6.9371571247e+06
0.20445132        	6.9364273224e+06
0.2051773         	6.9355727964e+06
0.20590438        	6.9345986973e+06
0.20663249        	6.9335259567e+06
0.20736141        	6.9323914988e+06
0.20809096        	6.9312444669e+06
0.20882092        	6.9301412423e+06
0.20955129        	6.9291359209e+06
0.21028204        	6.9282713288e+06
0.21101338        	6.9275705438e+06
0.21174546        	6.9270335460e+06
0.21247843        	6.9266397672e+06
0.21321233        	6.9263566107e+06
0.21394707        	6.9261503263e+06
0.21468243        	6.9259952474e+06
0.21541815        	6.9258781871e+06
0.21615395        	6.9257975917e+06
0.21688944        	6.9257592709e+06
0.21762465        	6.9257704427e+06
0.21835946        	6.9258336721e+06
0.2190939         	6.9259424382e+06
0.21982799        	6.9260799521e+06
0.22056166        	6.9262215682e+06
0.22129477        	6.9263398154e+06
0.22202712        	6.9264098993e+06
0.22275845        	6.9264132945e+06
0.22348854        	6.9263382411e+06
0.22421725        	6.9261771805e+06
0.22494458        	6.9259222447e+06
0.22567063        	6.9255603240e+06
0.22639563        	6.9250691834e+06
0.22711985        	6.9244159480e+06
0.22784352        	6.9235584015e+06
0.22856689        	6.9224484094e+06
0.22929026        	6.9210365699e+06
0.23001364        	6.9192775024e+06
0.23073703        	6.9171332366e+06
0.23146078        	6.9145741326e+06
0.23218487        	6.9115825430e+06
0.23290955        	6.9081518121e+06
0.23363493        	6.9042896817e+06
0.23436115        	6.9000209400e+06
0.23508837        	6.8953908883e+06
0.23581657        	6.8904702919e+06
0.23654581        	6.8853552510e+06
0.2372759         	6.8801677276e+06
0.23800674        	6.8750477611e+06
0.23873814        	6.8701442170e+06
0.23947004        	6.8656000762e+06
0.24020236        	6.8615394484e+06
0.24093502        	6.8580548605e+06
0.24166802        	6.8551975924e+06
0.24240136        	6.8529739235e+06
0.2431351         	6.8513474382e+06
0.24386913        	6.8502470360e+06
0.24460335        	6.8495782331e+06
0.24533756        	6.8492365503e+06
0.24607178        	6.8491200757e+06
0.2468055         	6.8491394203e+06
0.24753919        	6.8492234380e+06
0.24827239        	6.8493210370e+06
0.2490056         	6.8494000476e+06
0.2497387         	6.8494438596e+06
0.25047137        	6.8494477458e+06
0.25120458        	6.8494155995e+06
0.2519378         	6.8493578622e+06
0.25267101        	6.8492904335e+06
0.25340479        	6.8492339079e+06
0.25413887        	6.8492128605e+06
0.25487347        	6.8492542308e+06
0.25560876        	6.8493850626e+06
0.25634497        	6.8496295332e+06
0.25708214        	6.8500055628e+06
0.25782048        	6.8505220401e+06
0.25855999        	6.8511768863e+06
0.25930062        	6.8519570510e+06
0.26004234        	6.8528399514e+06
0.26078508        	6.8537963966e+06
0.26152874        	6.8547939349e+06
0.26227319        	6.8558007761e+06
0.26301842        	6.8567896452e+06
0.26376443        	6.8577403557e+06
0.26451125        	6.8586409209e+06
0.26525894        	6.8594869731e+06
0.26600751        	6.8602794215e+06
0.26675707        	6.8610210422e+06
0.26750765        	6.8617130790e+06
0.26825923        	6.8623533051e+06
0.26901178        	6.8629355852e+06
0.26976539        	6.8634511188e+06
0.27052013        	6.8638910544e+06
0.27127627        	6.8642500926e+06
0.27203366        	6.8645291868e+06
0.27279233        	6.8647371538e+06
0.2735526         	6.8648897268e+06
0.27431423        	6.8650070976e+06
0.27507716        	6.8651112808e+06
0.27584138        	6.8652234930e+06
0.27660675        	6.8653624978e+06
0.27737319        	6.8655442864e+06
0.27814053        	6.8657827981e+06
0.27890888        	6.8660909883e+06
0.27967829        	6.8664811730e+06
0.28044835        	6.8669639702e+06
0.28121962        	6.8675472007e+06
0.28199154        	6.8682315904e+06
0.28276443        	6.8690093372e+06
0.28353769        	6.8698606937e+06
0.28431239        	6.8707570410e+06
0.28508708        	6.8716590880e+06
0.2858623         	6.8725272732e+06
0.2866391         	6.8733262289e+06
0.2874159         	6.8740275451e+06
0.28819307        	6.8746183984e+06
0.28897241        	6.8751005370e+06
0.28975174        	6.8754842938e+06
0.29053171        	6.8757878602e+06
0.29131422        	6.8760295920e+06
0.29209672        	6.8762220186e+06
0.29288048        	6.8763726556e+06
0.29366717        	6.8764837480e+06
0.29445385        	6.8765553488e+06
0.29524328        	6.8765906173e+06
0.29603607        	6.8765978042e+06
0.29682886        	6.8765918872e+06
0.29762164        	6.8765934540e+06
0.29841443        	6.8766259962e+06
0.29920721        	6.8767133986e+06
0.3               	6.8768785356e+06
0.30080897        	6.8771503853e+06
0.30162107        	6.8775534649e+06
0.30243619        	6.8781195423e+06
0.3032542         	6.8788883620e+06
0.30407491        	6.8799084432e+06
0.30489795        	6.8812352325e+06
0.30572295        	6.8829272312e+06
0.30654953        	6.8850401684e+06
0.30737729        	6.8876207300e+06
0.30820591        	6.8907008533e+06
0.30903503        	6.8942919606e+06
0.30986451        	6.8983812500e+06
0.31069411        	6.9029263324e+06
0.3115237         	6.9078532696e+06
0.3123533         	6.9130553546e+06
0.31318299        	6.9183962732e+06
0.31401298        	6.9237177336e+06
0.31484297        	6.9288474969e+06
0.31567325        	6.9336221839e+06
0.31650383        	6.9378997581e+06
0.31733485        	6.9415772462e+06
0.31816636        	6.9445995917e+06
0.3189986         	6.9469641302e+06
0.31983158        	6.9487148989e+06
0.32066544        	6.9499327332e+06
0.32150023        	6.9507206647e+06
0.32233611        	6.9511890248e+06
0.32317306        	6.9514418924e+06
0.32401123        	6.9515674988e+06
0.32485052        	6.9516326195e+06
0.32569102        	6.9516812143e+06
0.3265326         	6.9517358866e+06
0.32737512        	6.9518010825e+06
0.32821837        	6.9518668413e+06
0.32906212        	6.9519126204e+06
0.32990611        	6.9519110221e+06
0.33075011        	6.9518314620e+06
0.33159375        	6.9516439852e+06
0.33243694        	6.9513230592e+06
0.33327953        	6.9508512499e+06
0.33412132        	6.9502221971e+06
0.33496236        	6.9494419166e+06
0.33580253        	6.9485288780e+06
0.33664195        	6.9475118150e+06
0.33748063        	6.9464271451e+06
0.33831855        	6.9453147860e+06
0.33915585        	6.9442122747e+06
0.33999251        	6.9431502328e+06
0.34082855        	6.9421507915e+06
0.34166398        	6.9412291757e+06
0.34249872        	6.9403943573e+06
0.34333271        	6.9396501052e+06
0.3441658         	6.9389974494e+06
0.34499803        	6.9384368158e+06
0.34582919        	6.9379690961e+06
0.34665923        	6.9375945757e+06
0.34748811        	6.9373112544e+06
0.34831578        	6.9371129856e+06
0.3491422         	6.9369882261e+06
0.34996737        	6.9369198342e+06
0.35079132        	6.9368860773e+06
0.35161414        	6.9368625957e+06
0.35243594        	6.9368245997e+06
0.35325686        	6.9367487360e+06
0.35407688        	6.9366143796e+06
0.3548962         	6.9364043178e+06
0.35571482        	6.9361053486e+06
0.35653291        	6.9357088818e+06
0.35735072        	6.9352118480e+06
0.3581678         	6.9346183267e+06
0.35898483        	6.9339390275e+06
0.3598015         	6.9331930235e+06
0.36061771        	6.9324059734e+06
0.36143393        	6.9316075495e+06
0.36225014        	6.9308290912e+06
0.363066          	6.9300997822e+06
0.36388132        	6.9294426811e+06
0.36469664        	6.9288720129e+06
0.36551172        	6.9283935774e+06
0.36632608        	6.9280051069e+06
0.36714009        	6.9276981651e+06
0.36795346        	6.9274617898e+06
0.36876584        	6.9272845419e+06
0.36957727        	6.9271558378e+06
0.37038752        	6.9270660401e+06
0.37119632        	6.9270054571e+06
0.37200364        	6.9269629370e+06
0.37280923        	6.9269247528e+06
0.37361297        	6.9268741045e+06
0.37441463        	6.9267913988e+06
0.37521429        	6.9266549321e+06
0.37601182        	6.9264417108e+06
0.37680711        	6.9261278906e+06
0.37760049        	6.9256883610e+06
0.37839177        	6.9250966357e+06
0.37918125        	6.9243237203e+06
0.37996915        	6.9233380325e+06
0.38075582        	6.9221056097e+06
0.3815413         	6.9205921779e+06
0.38232584        	6.9187648102e+06
0.38310962        	6.9165954063e+06
0.38389339        	6.9140618271e+06
0.38467717        	6.9111550566e+06
0.38546095        	6.9078806508e+06
0.38624472        	6.9042611280e+06
0.3870285         	6.9003374063e+06
0.38781228        	6.8961690499e+06
0.38859605        	6.8918331573e+06
0.38937983        	6.8874214646e+06
0.3901636         	6.8830357217e+06
0.39094738        	6.8787816051e+06
0.39173116        	6.8747615942e+06
0.39251493        	6.8710672534e+06
0.39329871        	6.8677717641e+06
0.39408249        	6.8649239558e+06
0.39486626        	6.8625450730e+06
0.39565004        	6.8606284411e+06
0.39643382        	6.8591423100e+06
0.39721759        	6.8580350298e+06
0.39800137        	6.8572420872e+06
0.39878515        	6.8566940879e+06
0.39956892        	6.8563240377e+06
0.40035197        	6.8560732056e+06
0.40113376        	6.8558945269e+06
0.40191512        	6.8557545367e+06
0.40269607        	6.8556338841e+06
0.40347667        	6.8555257826e+06
0.40425697        	6.8554339724e+06
0.40503719        	6.8553702182e+06
0.40581718        	6.8553516761e+06
0.40659745        	6.8553982725e+06
0.40737785        	6.8555301885e+06
0.40815863        	6.8557653436e+06
0.40893982        	6.8561170845e+06
0.40972158        	6.8565926136e+06
0.41050394        	6.8571917143e+06
0.41128695        	6.8579062638e+06
0.41207062        	6.8587204424e+06
0.41285495        	6.8596121246e+06
0.41363992        	6.8605548350e+06
0.41442553        	6.8615202031e+06
0.41521174        	6.8624807364e+06
0.41599853        	6.8634121172e+06
0.41678596        	6.8642943330e+06
0.41757405        	6.8651123221e+06
0.4183628         	6.8658556810e+06
0.41915225        	6.8665181666e+06
0.41994249        	6.8670971767e+06
0.42073356        	6.8675929310e+06
0.42152551        	6.8680076604e+06
0.42231845        	6.8683453251e+06
0.42311237        	6.8686120956e+06
0.42390735        	6.8688169561e+06
0.42470334        	6.8689716576e+06
0.4255004         	6.8690904758e+06
0.42629847        	6.8691898452e+06
0.42709752        	6.8692878304e+06
0.4278975         	6.8694031747e+06
0.42869835        	6.8695541819e+06
0.42949995        	6.8697575001e+06
0.43030222        	6.8700269390e+06
0.43110508        	6.8703723190e+06
0.43190847        	6.8707985631e+06
0.43271234        	6.8713049994e+06
0.43351662        	6.8718850702e+06
0.43432114        	6.8725263781e+06
0.43512602        	6.8732116244e+06
0.43593106        	6.8739192494e+06
0.43673645        	6.8746257943e+06
0.43754185        	6.8753072315e+06
0.43834773        	6.8759424175e+06
0.43915364        	6.8765135551e+06
0.43996006        	6.8770089978e+06
0.44076676        	6.8774225510e+06
0.44157392        	6.8777539414e+06
0.44238166        	6.8780075082e+06
0.44319009        	6.8781909340e+06
0.4439994         	6.8783139611e+06
0.44480975        	6.8783875103e+06
0.44562128        	6.8784233280e+06
0.44643418        	6.8784341248e+06
0.44724869        	6.8784340656e+06
0.44806487        	6.8784393975e+06
0.44888298        	6.8784689508e+06
0.44970309        	6.8785443380e+06
0.45052531        	6.8786899398e+06
0.45134969        	6.8789328040e+06
0.45217624        	6.8793025450e+06
0.45300493        	6.8798312823e+06
0.4538355         	6.8805532543e+06
0.45466793        	6.8815047709e+06
0.4555019         	6.8827227949e+06
0.4563372         	6.8842437777e+06
0.45717353        	6.8861008621e+06
0.45801072        	6.8883210468e+06
0.45884817        	6.8909199374e+06
0.45968629        	6.8939024869e+06
0.46052441        	6.8972528206e+06
0.46136244        	6.9009372890e+06
0.46219966        	6.9048985955e+06
0.46303688        	6.9090668791e+06
0.46387409        	6.9133518552e+06
0.46471034        	6.9176461942e+06
0.46554659        	6.9218474691e+06
0.46638284        	6.9258509227e+06
0.46721908        	6.9295624707e+06
0.46805533        	6.9329061558e+06
0.46889158        	6.9358301508e+06
0.46972783        	6.9383103073e+06
0.47056408        	6.9403503332e+06
0.47140032        	6.9419782804e+06
0.4722378         	6.9432425780e+06
0.47307527        	6.9441996109e+06
0.47391301        	6.9449132704e+06
0.47475182        	6.9454451316e+06
0.47559063        	6.9458477075e+06
0.47643017        	6.9461630849e+06
0.47727045        	6.9464193381e+06
0.47811073        	6.9466307038e+06
0.47895101        	6.9467992942e+06
0.47979129        	6.9469170982e+06
0.48063157        	6.9469691469e+06
0.48147185        	6.9469368245e+06
0.48231213        	6.9468011825e+06
0.48315241        	6.9465459737e+06
0.4839914         	6.9461609277e+06
0.48482955        	6.9456424265e+06
0.4856677         	6.9449941283e+06
0.48650495        	6.9442288333e+06
0.48734056        	6.9433668094e+06
0.48817617        	6.9424315965e+06
0.48901177        	6.9414523297e+06
0.48984542        	6.9404612648e+06
0.49067776        	6.9394846067e+06
0.49151011        	6.9385435993e+06
0.49234245        	6.9376570901e+06
0.49317479        	6.9368395249e+06
0.49400685        	6.9361006133e+06
0.49483349        	6.9354484832e+06
0.49566013        	6.9348780546e+06
0.49648677        	6.9343858493e+06
0.49731342        	6.9339658237e+06
0.49814006        	6.9336096236e+06
0.4989667         	6.9333064778e+06
0.49979334        	6.9330436368e+06
0.50061608        	6.9328077611e+06
0.50143664        	6.9325822577e+06
0.50225626        	6.9323501845e+06
0.50307495        	6.9320957160e+06
0.50389286        	6.9318046226e+06
0.50471008        	6.9314649110e+06
0.50552671        	6.9310677329e+06
0.50634277        	6.9306084418e+06
0.5071584         	6.9300871402e+06
0.50797368        	6.9295088769e+06
0.50878866        	6.9288830143e+06
0.50960341        	6.9282225289e+06
0.51041787        	6.9275436723e+06
0.51123225        	6.9268645878e+06
0.51204636        	6.9262043345e+06
0.51286036        	6.9255808686e+06
0.51367409        	6.9250103622e+06
0.51448762        	6.9245052805e+06
0.5153008         	6.9240738443e+06
0.51611356        	6.9237196979e+06
0.51692582        	6.9234423651e+06
0.51773743        	6.9232377041e+06
0.51854829        	6.9230985230e+06
0.51935827        	6.9230153495e+06
0.52016715        	6.9229768545e+06
0.52097483        	6.9229699949e+06
0.52178119        	6.9229800681e+06
0.52258607        	6.9229907142e+06
0.52338937        	6.9229838881e+06
0.52419102        	6.9229398240e+06
0.52499099        	6.9228370822e+06
0.52578925        	6.9226526947e+06
0.5265858         	6.9223623244e+06
0.52738075        	6.9219403876e+06
0.52817419        	6.9213604482e+06
0.52896622        	6.9205957153e+06
0.52975704        	6.9196196824e+06
0.5305468         	6.9184072418e+06
0.53133573        	6.9169358498e+06
0.5321239         	6.9151875521e+06
0.5329116         	6.9131500689e+06
0.53369903        	6.9108190950e+06
0.53448619        	6.9082004843e+06
0.53527314        	6.9053111509e+06
0.53606014        	6.9021788479e+06
0.53684758        	6.8988426359e+06
0.53763502        	6.8953560421e+06
0.53842245        	6.8917801822e+06
0.53921032        	6.8881807446e+06
0.53999826        	6.8846301784e+06
0.5407862         	6.8811987982e+06
0.54157414        	6.8779514299e+06
0.54236208        	6.8749436604e+06
0.54315003        	6.8722183080e+06
0.54393797        	6.8698031195e+06
0.54472591        	6.8677093334e+06
0.54551332        	6.8659334868e+06
0.5463007         	6.8644555255e+06
0.54708773        	6.8632463931e+06
0.54787453        	6.8622689846e+06
0.54866094        	6.8614835579e+06
0.54944714        	6.8608509202e+06
0.55023286        	6.8603365315e+06
0.55101845        	6.8599122131e+06
0.55180362        	6.8595584265e+06
0.55258858        	6.8592639271e+06
0.55337354        	6.8590254738e+06
0.5541585         	6.8588466631e+06
0.55494345        	6.8587360601e+06
0.55572841        	6.8587051639e+06
0.55651337        	6.8587662951e+06
0.55729833        	6.8589306171e+06
0.55808383        	6.8592067441e+06
0.55886951        	6.8595989866e+06
0.55965583        	6.8601070811e+06
0.56044246        	6.8607249725e+06
0.56122968        	6.8614418093e+06
0.5620175         	6.8622420233e+06
0.56280572        	6.8631060930e+06
0.56359457        	6.8640126922e+06
0.56438402        	6.8649396242e+06
0.56517387        	6.8658653192e+06
0.56596447        	6.8667707378e+06
0.56675568        	6.8676390601e+06
0.56754736        	6.8684569411e+06
0.56833985        	6.8692150984e+06
0.5691331         	6.8699073290e+06
0.569927          	6.8705311051e+06
0.57072164        	6.8710876774e+06
0.57151725        	6.8715815961e+06
0.57231375        	6.8720196300e+06
0.57311112        	6.8724106567e+06
0.57390925        	6.8727655483e+06
0.57470836        	6.8730971299e+06
0.57550848        	6.8734193079e+06
0.57630912        	6.8737460959e+06
0.57711085        	6.8740913688e+06
0.577913          	6.8744670565e+06
0.57871616        	6.8748834549e+06
0.57951933        	6.8753471648e+06
0.58032361        	6.8758624638e+06
0.58112837        	6.8764286823e+06
0.58193313        	6.8770409920e+06
0.58273789        	6.8776908690e+06
0.58354265        	6.8783663400e+06
0.58434782        	6.8790531876e+06
0.58515463        	6.8797363027e+06
0.58596145        	6.8803976526e+06
0.58676826        	6.8810213798e+06
0.58757507        	6.8815935208e+06
0.58838189        	6.8821029282e+06
0.5891887         	6.8825419005e+06
0.58999551        	6.8829064885e+06
0.59080268        	6.8831966028e+06
0.59161302        	6.8834161017e+06
0.59242335        	6.8835701465e+06
0.59323369        	6.8836678945e+06
0.59404403        	6.8837207469e+06
0.59485561        	6.8837421193e+06
0.59567218        	6.8837473179e+06
0.59648875        	6.8837536691e+06
0.59730532        	6.8837804405e+06
0.59812189        	6.8838485503e+06
0.59893846        	6.8839806230e+06
0.59975503        	6.8842009896e+06
0.60057739        	6.8845382724e+06
0.60140368        	6.8850212379e+06
0.60223163        	6.8856783072e+06
0.60306111        	6.8865386255e+06
0.60389194        	6.8876301083e+06
0.60472392        	6.8889778906e+06
0.60555686        	6.8906026156e+06
0.60639057        	6.8925184496e+06
0.60722481        	6.8947306923e+06
0.60805949        	6.8972344175e+06
0.60889446        	6.9000121818e+06
0.60972953        	6.9030333573e+06
0.61056459        	6.9062547808e+06
0.61139966        	6.9096221449e+06
0.61223472        	6.9130718982e+06
0.61306945        	6.9165330765e+06
0.61390411        	6.9199354937e+06
0.61473878        	6.9232107295e+06
0.61557345        	6.9262970228e+06
0.61640811        	6.9291435478e+06
0.61724305        	6.9317142912e+06
0.61807814        	6.9339874264e+06
0.6189134         	6.9359573613e+06
0.61974891        	6.9376330062e+06
0.62058479        	6.9390352357e+06
0.62142096        	6.9401932406e+06
0.62225747        	6.9411412750e+06
0.62309431        	6.9419141195e+06
0.62393161        	6.9425433305e+06
0.62476923        	6.9430543840e+06
0.62560699        	6.9434656000e+06
0.62644512        	6.9437877851e+06
0.62728336        	6.9440240291e+06
0.62812159        	6.9441711710e+06
0.62895982        	6.9442215414e+06
0.62979795        	6.9441652364e+06
0.63063569        	6.9439923528e+06
0.63147311        	6.9436949292e+06
0.63231016        	6.9432687349e+06
0.63314674        	6.9427144614e+06
0.63398277        	6.9420383959e+06
0.63481824        	6.9412526203e+06
0.63565313        	6.9403747670e+06
0.63648739        	6.9394263926e+06
0.637321          	6.9384308828e+06
0.63815389        	6.9374116833e+06
0.63898607        	6.9363915283e+06
0.63981758        	6.9353917027e+06
0.64064834        	6.9344307123e+06
0.64147823        	6.9335232536e+06
0.64230735        	6.9326793794e+06
0.64313552        	6.9319047431e+06
0.64396285        	6.9312001714e+06
0.64478911        	6.9305629161e+06
0.64561445        	6.9299868926e+06
0.64643875        	6.9294637623e+06
0.647262          	6.9289832152e+06
0.64808433        	6.9285333869e+06
0.64890555        	6.9281016728e+06
0.64972592        	6.9276751197e+06
0.65054531        	6.9272416247e+06
0.65136386        	6.9267904310e+06
0.65218165        	6.9263129565e+06
0.65299874        	6.9258032256e+06
0.65381526        	6.9252580780e+06
0.65463125        	6.9246775174e+06
0.6554466         	6.9240647522e+06
0.65626178        	6.9234255287e+06
0.65707627        	6.9227688565e+06
0.65789076        	6.9221048225e+06
0.6587047         	6.9214458706e+06
0.6595184         	6.9208043601e+06
0.6603321         	6.9201925414e+06
0.66114505        	6.9196223810e+06
0.66195792        	6.9191031269e+06
0.6627703         	6.9186424996e+06
0.66358229        	6.9182452165e+06
0.6643936         	6.9179132990e+06
0.66520439        	6.9176456270e+06
0.66601444        	6.9174384601e+06
0.66682357        	6.9172852832e+06
0.66763172        	6.9171770696e+06
0.66843875        	6.9171024985e+06
0.6692446         	6.9170481089e+06
0.67004923        	6.9169984825e+06
0.67085257        	6.9169364441e+06
0.67165448        	6.9168432841e+06
0.67245485        	6.9166990328e+06
0.67325389        	6.9164826913e+06
0.67405156        	6.9161725981e+06
0.67484788        	6.9157466923e+06
0.67564289        	6.9151829569e+06
0.67643666        	6.9144599908e+06
0.67722942        	6.9135576155e+06
0.67802144        	6.9124577162e+06
0.67881232        	6.9111464151e+06
0.6796029         	6.9096120308e+06
0.68039317        	6.9078494752e+06
0.68118218        	6.9058625991e+06
0.68197119        	6.9036571739e+06
0.68276019        	6.9012494309e+06
0.6835492         	6.8986636131e+06
0.68433821        	6.8959315455e+06
0.68512721        	6.8930918305e+06
0.68591622        	6.8901884092e+06
0.68670523        	6.8872687280e+06
0.68749424        	6.8843815676e+06
0.68828324        	6.8815745890e+06
0.68907225        	6.8788918358e+06
0.68986126        	6.8763714212e+06
0.69065026        	6.8740436427e+06
0.69143927        	6.8719298860e+06
0.69222828        	6.8700420306e+06
0.69301729        	6.8683828016e+06
0.69380629        	6.8669464711e+06
0.6945953         	6.8657204585e+06
0.69538431        	6.8646870324e+06
0.69617332        	6.8638253648e+06
0.69696232        	6.8631138905e+06
0.69775133        	6.8625324272e+06
0.69854034        	6.8620637119e+06
0.69932934        	6.8616945206e+06
0.7001183         	6.8614160891e+06
0.70090694        	6.8612241421e+06
0.70169558        	6.8611180907e+06
0.70248423        	6.8611004679e+06
0.70327293        	6.8611757281e+06
0.7040619         	6.8613490703e+06
0.70485111        	6.8616251239e+06
0.70564063        	6.8620069350e+06
0.70643053        	6.8624949495e+06
0.70722089        	6.8630864646e+06
0.70801168        	6.8637751515e+06
0.70880296        	6.8645511276e+06
0.70959478        	6.8654012165e+06
0.71038715        	6.8663097611e+06
0.71118006        	6.8672594545e+06