# Region type :   sampledSurface planeZ6
# Faces           : 654
# Area            : 8.2959466298e-02
# Scale factor    : 1.0000000000e+00
# Time            	areaAverage(H2)
0.0021681777      	0.0000000000e+00
0.0098950663      	0.0000000000e+00
0.017629395       	0.0000000000e+00
0.025363724       	0.0000000000e+00
0.033098053       	5.9400160850e-293
0.040832383       	8.3057509308e-261
0.048566712       	2.3656946312e-238
0.056301041       	5.2377762279e-217
0.06403537        	5.8499176001e-199
0.071769699       	7.5175795616e-184
0.079428334       	3.1358168947e-171
0.086939267       	2.1136825721e-160
0.094622051       	2.9230988859e-150
0.10232558        	4.6951390773e-141
0.11007752        	6.2989314159e-133
0.11782946        	2.3713164842e-126
0.1255814         	1.6436801898e-121
0.13333333        	5.1845226888e-118
0.14108527        	2.6210703838e-115
0.14883721        	5.1080921489e-113
0.15658915        	6.0027081687e-111
0.16434109        	5.3938738288e-109
0.17209302        	4.3477143419e-107
0.17984496        	3.1716873889e-105
0.1875969         	2.1629623879e-103
0.19534884        	2.0458317813e-101
0.20310078        	5.8913080057e-99
0.21085271        	1.0892626849e-95
0.21860465        	1.6405634047e-91
0.22635659        	1.2128658525e-86
0.23410853        	1.6639356677e-81
0.24186047        	1.7485938100e-76
0.2496124         	1.0240570283e-71
0.25736434        	3.1524688718e-67
0.26511628        	5.0398612520e-63
0.27286822        	4.0166857695e-59
0.28062016        	1.3269500821e-55
0.28837209        	1.4988354412e-52
0.29612403        	4.9975237756e-50
0.30387597        	5.0861275758e-48
0.31162791        	2.2033782940e-46
0.31937984        	5.3863362203e-45
0.32713178        	9.1148202907e-44
0.33488372        	1.2187174229e-42
0.34263566        	1.4041585753e-41
0.3503876         	1.5123418386e-40
0.35788617        	1.5490370658e-39
0.3644252         	1.3802682959e-38
0.37122571        	1.9660355121e-37
0.37876428        	6.3570737865e-36
0.3859473         	2.4613393493e-34
0.39232858        	7.3569157606e-33
0.39803297        	1.5749464951e-31
0.4033449         	2.6569286249e-30
0.40833211        	3.5275907726e-29
0.4132434         	4.3264114233e-28
0.41827504        	5.5116643906e-27
0.42361946        	8.0584294239e-26
0.42937066        	1.3803599329e-24
0.43541406        	2.4360544737e-23
0.44171094        	3.9363091568e-22
0.4482519         	5.2346934539e-21
0.45496725        	5.2132738763e-20
0.46185956        	3.8610835222e-19
0.46915788        	2.3206312049e-18
0.47686841        	1.1691109731e-17
0.48457894        	4.8089501079e-17
0.49228947        	1.7065633288e-16
0.5               	5.3521500934e-16
0.50775194        	1.5352602516e-15
0.51550388        	4.2564884148e-15
0.52325581        	1.2330805937e-14
0.53100775        	4.0821805189e-14
0.53875969        	1.6445934074e-13
0.5463935         	7.8398590270e-13
0.55319326        	3.5444756954e-12
0.55912692        	1.4015474232e-11
0.56459034        	5.1396137458e-11
0.56977847        	1.8004729003e-10
0.57499873        	6.4130324519e-10
0.58045502        	2.4259503326e-09
0.58623229        	9.8161797567e-09
0.59221825        	4.0236209945e-08
0.59820421        	1.5399587543e-07
0.6041817         	5.3618983797e-07
0.61015464        	1.6624934253e-06
0.6161839         	4.5602441084e-06
0.62241622        	1.1203063741e-05
0.62914865        	2.5460340333e-05
0.63670455        	5.4818169287e-05
0.6444235         	1.0463422755e-04
0.65214246        	1.7801279891e-04
0.65986142        	2.7482521434e-04
0.66758038        	3.9360227131e-04
0.67529934        	5.3831522351e-04
0.68301829        	7.2461578298e-04
0.69073725        	9.8550719929e-04
0.69845621        	1.3728159165e-03
0.70618748        	1.9503236928e-03
0.7131026         	2.6762872970e-03
0.71909174        	3.4954234430e-03
0.72465797        	4.4303628154e-03
0.73000751        	5.4864077352e-03
0.73545698        	6.7018566184e-03
0.74120197        	8.1033577809e-03
0.74725353        	9.6845055095e-03
0.75339586        	1.1410173994e-02
0.75940837        	1.3281229526e-02
0.76528441        	1.5361181702e-02
0.77107872        	1.7670001565e-02
0.77692929        	2.0149755784e-02
0.78299757        	2.2637888460e-02
0.78958741        	2.4944047551e-02
0.79698335        	2.6803223490e-02
0.80465116        	2.7863610143e-02
0.8124031         	2.8172968275e-02
0.82015504        	2.7969154381e-02
0.82790698        	2.7503911840e-02
0.83565891        	2.6932846770e-02
0.84341085        	2.6308747683e-02
0.85116279        	2.5624389389e-02
0.85891473        	2.4885166803e-02
0.86662454        	2.4208702793e-02
0.87339086        	2.3874323811e-02
0.8793186         	2.4016497871e-02
0.88491227        	2.4794679376e-02
0.89039871        	2.6493450637e-02
0.89602232        	2.9526825740e-02
0.90182104        	3.4167358727e-02
0.90801138        	4.0486152537e-02
0.91410285        	4.7176412767e-02
0.92004713        	5.2823412557e-02
0.92589954        	5.6121308597e-02
0.93174881        	5.6311594336e-02
0.9377372         	5.3522627744e-02
0.94407399        	4.8501447591e-02
0.95107909        	4.2107439357e-02
0.95876783        	3.5449303267e-02
0.96647478        	2.9854473283e-02
0.97418173        	2.5530935923e-02
0.98188867        	2.2336828631e-02
0.98959562        	1.9957073964e-02
0.99730257        	1.8062050397e-02
1.0050388         	1.6419571168e-02
1.0127907         	1.4971474543e-02
1.0205426         	1.3826310109e-02
1.0278027         	1.3213367551e-02
1.0341166         	1.3200774412e-02
1.0399833         	1.3756238616e-02
1.0456489         	1.4942359726e-02
1.0513418         	1.6917515541e-02
1.0572585         	1.9940058938e-02
1.0633903         	2.4209363751e-02
1.0694907         	2.9565800234e-02
1.0754545         	3.5534356725e-02
1.0813691         	4.1360702333e-02
1.0872837         	4.5929931400e-02
1.0932841         	4.8299762031e-02
1.0993895         	4.8140303679e-02
1.1061152         	4.5623244761e-02
1.1136317         	4.1247519177e-02
1.1213778         	3.6323273184e-02
1.1291238         	3.1800621791e-02
1.1368698         	2.8001085303e-02
1.1446159         	2.4896008373e-02
1.1523619         	2.2289632306e-02
1.1601079         	1.9981935545e-02
1.167854          	1.7877123663e-02
1.1756            	1.6032559949e-02
1.1831143         	1.4670171334e-02
1.1897793         	1.3995146516e-02
1.1959776         	1.3959773457e-02
