# Region type :   patch outlet
# Faces           : 387
# Area            : 8.2961616953e-02
# Scale factor    : 1.0000000000e+00
# Time            	sum(phi)
0.0022170817      	1.9172083045e+01
0.012104396       	1.9158753515e+01
0.022092533       	1.9314593575e+01
0.032001994       	2.2154033137e+01
0.041837691       	3.7101989980e+01
0.051479363       	5.2399150968e+01
0.060925837       	5.3571648314e+01
0.069845766       	5.5385595828e+01
0.077660705       	5.5950839286e+01
0.084643083       	5.5580985859e+01
0.091468379       	5.5533940514e+01
0.098293676       	5.6107148156e+01
0.10578782        	5.6528006334e+01
0.1144013         	5.3846639688e+01
0.12403405        	4.3672744677e+01
0.13402957        	3.0406707176e+01
0.14402509        	2.4573692727e+01
0.15402061        	2.1796687351e+01
0.16401613        	2.0473377402e+01
0.17401165        	2.0279433090e+01
0.18400717        	1.9148333644e+01
0.19400269        	1.9810048038e+01
0.204             	2.6660836947e+01
0.214             	3.7868966304e+01
0.224             	4.6452817006e+01
0.23398892        	5.0831802135e+01
0.24312881        	5.3037067414e+01
0.2512232         	5.3868146085e+01
0.25880566        	5.4492456415e+01
0.26633834        	5.5434975036e+01
0.27419202        	5.5531702875e+01
0.28269411        	5.2558646402e+01
0.29210063        	4.5319813919e+01
0.302             	3.6304443234e+01
0.312             	2.9069825406e+01
0.322             	2.4635569254e+01
0.332             	2.2541965164e+01
0.342             	2.1049858729e+01
0.352             	1.9695136835e+01
0.362             	2.1007144137e+01
0.372             	2.6281378425e+01
0.382             	3.4227461716e+01
0.39038384        	4.1116386159e+01
0.39649956        	4.5257976210e+01
0.40169087        	4.7873160912e+01
0.40620548        	4.9577919826e+01
0.4104127         	5.0875919596e+01
0.41446592        	5.1992241700e+01
0.4184865         	5.3005302840e+01
0.42257192        	5.3925176347e+01
0.42678513        	5.4746693768e+01
0.43114363        	5.5415172845e+01
0.43563391        	5.5761719173e+01
0.44025153        	5.5523658333e+01
0.4450129         	5.4408303691e+01
0.44993414        	5.2252967393e+01
0.45501884        	4.9114364720e+01
0.46025542        	4.5257234673e+01
0.46564312        	4.1078650129e+01
0.47125257        	3.6944934742e+01
0.47730181        	3.3075435645e+01
0.48423701        	2.9569281455e+01
0.49283595        	2.6355400125e+01
0.503             	2.3324967062e+01
0.513             	2.1240505365e+01
0.523             	2.1292929696e+01
0.53209285        	2.4156260838e+01
0.53947757        	2.8360924034e+01
0.54603193        	3.2853255414e+01
0.55212816        	3.7123340532e+01
0.5578127         	4.0817941063e+01
0.56302255        	4.3741185925e+01
0.56778503        	4.6024840362e+01
0.57227146        	4.7920519686e+01
0.57667282        	4.9623089780e+01
0.581122          	5.1249170804e+01
0.58570202        	5.2819631012e+01
0.59042895        	5.4217596776e+01
0.59521447        	5.5229980093e+01
0.6               	5.5712517271e+01
0.60480057        	5.5498834846e+01
0.60958446        	5.4398095974e+01
0.61437165        	5.2434447115e+01
0.61919084        	4.9783527416e+01
0.62408365        	4.6726000829e+01
0.62912825        	4.3465700973e+01
0.63444944        	4.0154597472e+01
0.64027222        	3.6860833775e+01
0.64697206        	3.3497539832e+01
0.65515069        	2.9732381874e+01
0.66500569        	2.5563891080e+01
0.67500406        	2.2450673884e+01
0.68500244        	2.1767192411e+01
0.69434642        	2.3994380887e+01
0.70267167        	2.7948922582e+01
0.7097158         	3.1993186234e+01
0.715984          	3.5657666278e+01
0.7215634         	3.8764530161e+01
0.72660189        	4.1419078869e+01
0.73132436        	4.3787969264e+01
0.73594102        	4.6016751007e+01
0.74060466        	4.8190908854e+01
0.74540184        	5.0295811616e+01
0.7503405         	5.2188746748e+01
0.75533649        	5.3642150925e+01
0.76029069        	5.4477244084e+01
0.76514609        	5.4643763517e+01
0.76991081        	5.4079077508e+01
0.77462207        	5.2810459317e+01
0.77932697        	5.0928009148e+01
0.78409919        	4.8555688024e+01
0.78900724        	4.5881250793e+01
0.79416136        	4.3024122712e+01
0.79971419        	4.0017247281e+01
0.80588227        	3.6842738323e+01
0.81300803        	3.3327347819e+01
0.82149261        	2.9285823677e+01
0.83130445        	2.5286410959e+01
0.841333          	2.3090792815e+01
0.85097092        	2.3622207166e+01
0.85956291        	2.6217894115e+01
0.86712512        	2.9630812624e+01
0.87375922        	3.3021593702e+01
0.87961335        	3.6067231153e+01
0.88489135        	3.8775331158e+01
0.88982055        	4.1256148762e+01
0.89458481        	4.3595994353e+01
0.89929367        	4.5823816940e+01
0.90414948        	4.7954326252e+01
0.90912822        	4.9832837432e+01
0.91413889        	5.1246236229e+01
0.9190898         	5.2075823005e+01
0.92394701        	5.2255410085e+01
0.92872437        	5.1786454488e+01
0.93346328        	5.0712125829e+01
0.93820958        	4.9070544151e+01
0.94302244        	4.6942631458e+01
0.94797369        	4.4448640052e+01
0.95315611        	4.1689987255e+01
0.95868934        	3.8708537114e+01
0.96474431        	3.5515519721e+01
0.97154358        	3.2102374648e+01
0.97931976        	2.8474344950e+01
0.98813592        	2.4990459306e+01
0.99761925        	2.2645917533e+01
1.0068908         	2.2298795604e+01
1.0154014         	2.3649412495e+01
1.0230094         	2.5866085251e+01
1.0297398         	2.8275934495e+01
1.035726          	3.0555423951e+01
1.0411638         	3.2639725789e+01
1.046253          	3.4556509387e+01
1.051168          	3.6346779803e+01
1.0560512         	3.8035843682e+01
1.0609698         	3.9602846283e+01
1.0659478         	4.1000535936e+01
1.0709472         	4.2156475621e+01
1.0758926         	4.2998035892e+01
1.0807711         	4.3495859783e+01
1.0855783         	4.3631431929e+01
1.0903855         	4.3395087011e+01
1.0951928         	4.2780861133e+01
1.1               	4.1804679294e+01
1.1050333         	4.0459046446e+01
1.1102754         	3.8781562033e+01
1.1158171         	3.6767978051e+01
1.1217817         	3.4447749650e+01
1.1283097         	3.1854852461e+01
1.1355523         	2.9059885023e+01
1.1435593         	2.6348357449e+01
1.1521585         	2.4271448505e+01
1.160883          	2.3440754485e+01
1.1692102         	2.3980325337e+01
1.1768389         	2.5490992968e+01
1.1837161         	2.7462259185e+01
1.1899263         	2.9539862403e+01
1.1956118         	3.1560916602e+01
