# Region type :   sampledSurface planeZ3
# Faces           : 1018
# Area            : 8.2958402176e-02
# Scale factor    : 1.0000000000e+00
# Time            	areaAverage(H2)
0.0022170817      	0.0000000000e+00
0.0092645224      	1.0553519074e-313
0.012884978       	2.7251814535e-199
0.01665343        	1.7619245401e-149
0.02034513        	2.7338917424e-125
0.023827774       	6.9284573411e-111
0.026932755       	1.5946331204e-102
0.029800094       	1.7099956179e-96
0.032644938       	1.7897045973e-91
0.035440331       	3.3592083855e-87
0.038180787       	2.0883587046e-83
0.040808217       	5.8328980822e-80
0.04332293        	8.7702003467e-77
0.045797501       	9.3934278058e-74
0.048249661       	9.8039673875e-71
0.050679937       	1.1418963802e-67
0.053068241       	1.0128402835e-64
0.055391807       	5.2517760459e-62
0.057672178       	1.7423920449e-59
0.059928923       	4.3991112412e-57
0.062169282       	9.9681056219e-55
0.064385178       	2.2146859733e-52
0.066552414       	4.6493783568e-50
0.068669953       	8.7972882023e-48
0.070748606       	1.4362936545e-45
0.072802602       	1.9130076723e-43
0.074841967       	1.9742044848e-41
0.076862847       	1.5232045387e-39
0.078865375       	8.8433790730e-38
0.080852916       	3.9932293743e-36
0.082835943       	1.4860436887e-34
0.084808823       	4.6805882587e-33
0.086769955       	1.2728009102e-31
0.088710805       	2.9455463466e-30
0.090635898       	5.7457688581e-29
0.092546939       	9.2670555822e-28
0.094441831       	1.2091773800e-26
0.096325956       	1.2687681191e-25
0.098210081       	1.0834265549e-24
0.10009234        	7.6365489126e-24
0.10193606        	4.4535841064e-23
0.10377045        	2.3203625725e-22
0.1055933         	1.1248436150e-21
0.10740469        	5.2178218970e-21
0.1091993         	2.3266645074e-20
0.11096708        	9.8488733939e-20
0.11269826        	3.9018970049e-19
0.11438189        	1.4325431287e-18
0.11599914        	4.8244873859e-18
0.11752921        	1.4793377662e-17
0.11895562        	4.1196837934e-17
0.12026773        	1.0417836246e-16
0.12146381        	2.3976053750e-16
0.12255363        	5.0581399441e-16
0.12355483        	9.8994724869e-16
0.12448666        	1.8220361728e-15
0.1253662         	3.1946332332e-15
0.12620686        	5.3927288597e-15
0.12701895        	8.8373066767e-15
0.12781052        	1.4149434672e-14
0.12858771        	2.2240548982e-14
0.12935518        	3.4442660477e-14
0.1301165         	5.2689813371e-14
0.13087418        	7.9772164158e-14
0.13163003        	1.1969002382e-13
0.1323855         	1.7816477584e-13
0.13314171        	2.6333300355e-13
0.13389981        	3.8675816192e-13
0.13466077        	5.6477132509e-13
0.13542549        	8.2033095077e-13
0.13619471        	1.1854463742e-12
0.13696887        	1.7042594668e-12
0.13774839        	2.4371087852e-12
0.13853367        	3.4655270821e-12
0.1393253         	4.8987600472e-12
0.14012391        	6.8812813999e-12
0.14093023        	9.6026888326e-12
0.14174482        	1.3307804309e-11
0.14256827        	1.8311073554e-11
0.14340113        	2.5014770283e-11
0.14424398        	3.3935463816e-11
0.14509767        	4.5745775926e-11
0.1459631         	6.1331239013e-11
0.14684109        	8.1871018379e-11
0.1477324         	1.0895702498e-10
0.14863741        	1.4474580247e-10
0.1495563         	1.9218053430e-10
0.15048912        	2.5528803973e-10
0.1514358         	3.3955919335e-10
0.15239625        	4.5244223636e-10
0.15336999        	6.0391146850e-10
0.1543563         	8.0718386476e-10
0.15535447        	1.0796965992e-09
0.15636403        	1.4443974850e-09
0.15738511        	1.9317749520e-09
0.15841775        	2.5823137117e-09
0.15946213        	3.4501251493e-09
0.16051835        	4.6076962650e-09
0.16158672        	6.1528274578e-09
0.16266771        	8.2182064885e-09
0.16376202        	1.0985476801e-08
0.16487031        	1.4705736790e-08
0.16599339        	1.9731463666e-08
0.16713227        	2.6573288259e-08
0.16828737        	3.5974963995e-08
0.16946042        	4.9067958673e-08
0.17065294        	6.7618382663e-08
0.17186568        	9.4431252262e-08
0.17309874        	1.3407008968e-07
0.17435218        	1.9412684592e-07
0.17562408        	2.8727774588e-07
0.17691089        	4.3468092080e-07
0.17820923        	6.7165872454e-07
0.17951608        	1.0563421049e-06
0.18082816        	1.6815545135e-06
0.1821443         	2.6916897999e-06
0.18346207        	4.2987900964e-06
0.18478412        	6.8104015793e-06
0.18610724        	1.0631990090e-05
0.18743582        	1.6314618398e-05
0.18876536        	2.4511316237e-05
0.19010027        	3.6057664560e-05
0.19143807        	5.1869774875e-05
0.19277587        	7.2913295399e-05
0.19411367        	1.0021300457e-04
0.19545148        	1.3479779671e-04
0.19678928        	1.7768192069e-04
0.19812708        	2.2986360484e-04
0.19946488        	2.9234163348e-04
0.20080863        	3.6649762277e-04
0.20215633        	4.5348164682e-04
0.20350362        	5.5432754151e-04
0.2048504         	6.7046411806e-04
0.20619756        	8.0364078703e-04
0.20754529        	9.5580719372e-04
0.20889382        	1.1291495869e-03
0.21024319        	1.3260417916e-03
0.21159333        	1.5490182496e-03
0.21294408        	1.8008035322e-03
0.21429483        	2.0842744938e-03
0.21564457        	2.4024607034e-03
0.21699225        	2.7585158922e-03
0.21833639        	3.1553055675e-03
0.21967523        	3.5948612070e-03
0.22100697        	4.0776230127e-03
0.22232978        	4.6016001371e-03
0.22364231        	5.1619468358e-03
0.22494365        	5.7508887835e-03
0.22623381        	6.3584621727e-03
0.22751351        	6.9735166849e-03
0.22878485        	7.5852605204e-03
0.23005032        	8.1837734687e-03
0.23131266        	8.7604954278e-03
0.23257466        	9.3082804648e-03
0.23383898        	9.8211420003e-03
0.2351073         	1.0293699617e-02
0.2363806         	1.0721187078e-02
0.23765914        	1.1099540155e-02
0.23894255        	1.1425694844e-02
0.24022995        	1.1698005475e-02
0.24152012        	1.1916616417e-02
0.24281107        	1.2083606352e-02
0.24410201        	1.2203209813e-02
0.24539176        	1.2281237716e-02
0.24667831        	1.2324647319e-02
0.24796076        	1.2340994890e-02
0.24923809        	1.2337658582e-02
0.25050998        	1.2321237002e-02
0.25177682        	1.2297093949e-02
0.25303936        	1.2269155690e-02
0.25429902        	1.2239927601e-02
0.255558          	1.2210693840e-02
0.25681744        	1.2181833191e-02
0.25807955        	1.2153083810e-02
0.25934606        	1.2123824861e-02
0.26061782        	1.2093281698e-02
0.26189577        	1.2060624007e-02
0.26317964        	1.2025054633e-02
0.26446936        	1.1985874187e-02
0.26576424        	1.1942554835e-02
0.26706367        	1.1894751727e-02
0.26836707        	1.1842306201e-02
0.26967438        	1.1785198879e-02
0.27098536        	1.1723523133e-02
0.27229962        	1.1657462065e-02
0.27361731        	1.1587205630e-02
0.27493847        	1.1512958707e-02
0.27626329        	1.1434893931e-02
0.27759201        	1.1353149051e-02
0.27892468        	1.1267806853e-02
0.28026117        	1.1178907673e-02
0.28160129        	1.1086436506e-02
0.28294427        	1.0990374572e-02
0.2842918         	1.0890485945e-02
0.28564015        	1.0786931930e-02
0.28698986        	1.0679605967e-02
0.28834509        	1.0568160684e-02
0.28970031        	1.0453116577e-02
0.29105553        	1.0334728795e-02
0.29241075        	1.0213442416e-02
0.29377082        	1.0089470644e-02
0.29513987        	9.9632608886e-03
0.29650892        	9.8366120754e-03
0.29787797        	9.7105631561e-03
0.29924702        	9.5860576120e-03
0.30063099        	9.4625177474e-03
0.30204293        	9.3393123368e-03
0.30346905        	9.2178054813e-03
0.30490943        	9.0978004920e-03
0.30636278        	8.9789663479e-03
0.30782663        	8.8609663878e-03
0.30929689        	8.7436614495e-03
0.31076935        	8.6271356466e-03
0.31223985        	8.5117312451e-03
0.3137055         	8.3979146924e-03
0.31516501        	8.2861392614e-03
0.31661833        	8.1767560091e-03
0.31806642        	8.0699468030e-03
0.31951107        	7.9656888044e-03
0.32095481        	7.8637381460e-03
0.32239903        	7.7637627394e-03
0.32384635        	7.6651918155e-03
0.32529885        	7.5673900235e-03
0.32675824        	7.4697250964e-03
0.32822546        	7.3716964839e-03
0.32970043        	7.2730712386e-03
0.33118169        	7.1740167939e-03
0.33266693        	7.0751464896e-03
0.33415282        	6.9775789787e-03
0.33563585        	6.8828678715e-03
0.33711308        	6.7928330276e-03
0.33858255        	6.7094250632e-03
0.34004353        	6.6345761603e-03
0.34149576        	6.5701345814e-03
0.34293992        	6.5177535284e-03
0.344377          	6.4789384305e-03
0.34580798        	6.4550995008e-03
0.34723378        	6.4475760556e-03
0.34865469        	6.4576640404e-03
0.35007129        	6.4865692897e-03
0.35148368        	6.5353249110e-03
0.35289197        	6.6046683261e-03
0.35429617        	6.6949060684e-03
0.35569628        	6.8057929299e-03
0.35709254        	6.9364536946e-03
0.35848472        	7.0852913899e-03
0.35987375        	7.2501500423e-03
0.36125944        	7.4281974646e-03
0.36264265        	7.6162984292e-03
0.3640237         	7.8109933135e-03
0.36540261        	8.0087008829e-03
0.36678085        	8.2061149535e-03
0.36815639        	8.3996476994e-03
0.36953085        	8.5864901475e-03
0.37090301        	8.7637643263e-03
0.37227195        	8.9290219802e-03
0.37363665        	9.0802711035e-03
0.37499659        	9.2161557891e-03
0.3763499         	9.3359728545e-03
0.37769552        	9.4401247592e-03
0.37903244        	9.5302612461e-03
0.38036046        	9.6093932036e-03
0.38167933        	9.6817006875e-03
0.38298974        	9.7522285280e-03
0.38429163        	9.8262329004e-03
0.3855876         	9.9087722512e-03
0.38688019        	1.0004015269e-02
0.38816732        	1.0114368366e-02
0.38945348        	1.0240989596e-02
0.39073964        	1.0382869062e-02
0.39203063        	1.0537463178e-02
0.39332647        	1.0699816096e-02
0.3946223         	1.0862675396e-02
0.39591813        	1.1018257142e-02
0.39721396        	1.1158379937e-02
0.39850979        	1.1275241781e-02
0.39980563        	1.1362206490e-02
0.40110868        	1.1414677176e-02
0.40241151        	1.1429609857e-02
0.40371181        	1.1407156869e-02
0.4050091         	1.1349996115e-02
0.40630302        	1.1262756123e-02
0.40759365        	1.1151276542e-02
0.4088815         	1.1021864119e-02
0.41016721        	1.0880633375e-02
0.41145186        	1.0732994718e-02
0.4127368         	1.0583372100e-02
0.41402321        	1.0435174377e-02
0.41531232        	1.0290842297e-02
0.41660517        	1.0152022272e-02
0.41790246        	1.0019771902e-02
0.41920468        	9.8946991048e-03
0.42051206        	9.7771128280e-03
0.42182446        	9.6671380633e-03
0.42314173        	9.5647008686e-03
0.42446358        	9.4695195951e-03
0.42578967        	9.3810858228e-03
0.42711985        	9.2986492280e-03
0.42845381        	9.2212708268e-03
0.42979157        	9.1478133949e-03
0.43113298        	9.0770326653e-03
0.43247811        	9.0076264327e-03
0.43382701        	8.9383316492e-03
0.43517936        	8.8679956068e-03
0.43653531        	8.7956050331e-03
0.43789453        	8.7204070678e-03
0.43925695        	8.6418937092e-03
0.44062213        	8.5599081743e-03
0.44198966        	8.4746424057e-03
0.44335969        	8.3865757586e-03
0.44473189        	8.2965106680e-03
0.44610621        	8.2054394267e-03
0.44748353        	8.1143970559e-03
0.44886392        	8.0244661176e-03
0.45024834        	7.9365745694e-03
0.45163798        	7.8514560746e-03
0.45303414        	7.7696130651e-03
0.45443804        	7.6913187813e-03
0.4558511         	7.6166039877e-03
0.4572744         	7.5453382434e-03
0.45870858        	7.4772761717e-03
0.46015405        	7.4120987128e-03
0.46160994        	7.3495125631e-03
0.46307498        	7.2892550975e-03
0.46454702        	7.2311464022e-03
0.46602348        	7.1750946691e-03
0.46750072        	7.1211246894e-03
0.46897796        	7.0692315068e-03
0.4704522         	7.0195409010e-03
0.4719233         	6.9721046183e-03
0.47339074        	6.9269925703e-03
0.47485682        	6.8841824436e-03
0.47631944        	6.8437578826e-03
0.47778286        	6.8056183446e-03
0.47924934        	6.7697309841e-03
0.48071877        	6.7361522275e-03
0.48219269        	6.7049764322e-03
0.4836718         	6.6764344670e-03
0.48515618        	6.6509233839e-03
0.486647          	6.6289943955e-03
0.48813896        	6.6114488238e-03
0.48963091        	6.5991609242e-03
0.49112287        	6.5931164754e-03
0.49261482        	6.5943873058e-03
0.49409923        	6.6040063671e-03
0.49557442        	6.6228667825e-03
0.49704962        	6.6519638041e-03
0.49852481        	6.6921420770e-03
0.5               	6.7440986639e-03
0.50145058        	6.8072657324e-03
0.50289557        	6.8825013815e-03
0.50433548        	6.9699992178e-03
0.50577074        	7.0697874790e-03
0.5072017         	7.1816798399e-03
0.50862853        	7.3051948963e-03
0.51005137        	7.4395094782e-03
0.51147033        	7.5833981482e-03
0.51288572        	7.7352414902e-03
0.51429762        	7.8930144712e-03
0.51570632        	8.0544138789e-03
0.51711214        	8.2169400523e-03
0.51851535        	8.3780244507e-03
0.51991615        	8.5351649502e-03
0.52131474        	8.6860726037e-03
0.52271123        	8.8287453851e-03
0.52410544        	8.9615288952e-03
0.52549697        	9.0831736649e-03
0.52688539        	9.1929018064e-03
0.52826986        	9.2904253868e-03
0.5296496         	9.3760516331e-03
0.53102375        	9.4507336221e-03
0.53239129        	9.5161181441e-03
0.53375181        	9.5746311010e-03
0.53510469        	9.6293888670e-03
0.53644986        	9.6840646633e-03
0.53778773        	9.7426247779e-03
0.5391186         	9.8089578763e-03
0.54044353        	9.8865011131e-03
0.54176362        	9.9778100456e-03
0.54308028        	1.0084224357e-02
0.5443949         	1.0205578594e-02
0.54570827        	1.0339988723e-02
0.54702253        	1.0484001664e-02
0.54833761        	1.0632364865e-02
0.54965436        	1.0778644851e-02
0.55097292        	1.0915506930e-02
0.55229281        	1.1035344893e-02
0.55361434        	1.1131125313e-02
0.55493587        	1.1196922583e-02
0.5562574         	1.1228813780e-02
0.55757752        	1.1225138433e-02
0.5588961         	1.1186670337e-02
0.56021256        	1.1116368520e-02
0.56152675        	1.1018891268e-02
0.56283869        	1.0899951440e-02
0.56414878        	1.0765611455e-02
0.56545722        	1.0621733817e-02
0.56676566        	1.0473367202e-02
0.5680741         	1.0324812384e-02
0.56938323        	1.0179284331e-02
0.57069459        	1.0038959531e-02
0.57200904        	9.9052754485e-03
0.57332707        	9.7790624999e-03
0.57464903        	9.6606978201e-03
0.57597513        	9.5502213969e-03
0.57730562        	9.4474292261e-03
0.578641          	9.3519580955e-03
0.57998035        	9.2633729705e-03
0.58132395        	9.1809987372e-03
0.58267195        	9.1040206322e-03
0.5840237         	9.0315295271e-03
0.58537793        	8.9625263488e-03
0.58673813        	8.8957087437e-03
0.58809947        	8.8301538071e-03
0.58946735        	8.7644897729e-03
0.59083522        	8.6979742593e-03
0.59220709        	8.6295368014e-03
0.59358637        	8.5583186934e-03
0.59496564        	8.4842492295e-03
0.59634492        	8.4072046046e-03
0.59772419        	8.3273551379e-03
0.59910347        	8.2451427231e-03
0.60048679        	8.1609946538e-03
0.60187961        	8.0754102410e-03
0.6032757         	7.9896799492e-03
0.60467564        	7.9046888331e-03
0.60608027        	7.8212182306e-03
0.60749039        	7.7398994640e-03
0.60890704        	7.6611764449e-03
0.61033117        	7.5853079919e-03
0.61176361        	7.5123902263e-03
0.61320494        	7.4423886562e-03
0.61465518        	7.3751907023e-03
0.61611421        	7.3106261573e-03
0.61758103        	7.2485388347e-03
0.6190544         	7.1887837974e-03
0.62053253        	7.1312676888e-03
0.62201341        	7.0759448219e-03
0.62349598        	7.0227814580e-03
0.62497775        	6.9718361097e-03
0.6264582         	6.9231264066e-03
0.62793686        	6.8766896327e-03
0.62941372        	6.8325630652e-03
0.63088903        	6.7907856190e-03
0.63236418        	6.7513717818e-03
0.63384031        	6.7143645967e-03
0.63531817        	6.6798542515e-03
0.63679882        	6.6479860190e-03
0.63828269        	6.6190116748e-03
0.63976996        	6.5933097513e-03
0.64126008        	6.5714022534e-03
0.64275246        	6.5539465200e-03
0.64424523        	6.5417336640e-03
0.64573769        	6.5356357665e-03
0.64722768        	6.5365790837e-03
0.6487142         	6.5454821837e-03
0.65019611        	6.5632140146e-03
0.65167252        	6.5905465007e-03
0.6531432         	6.6281404610e-03
0.65460768        	6.6765224411e-03
0.65606663        	6.7360843754e-03
0.65751978        	6.8070382136e-03
0.65896786        	6.8894780490e-03
0.66041124        	6.9833044353e-03
0.66184976        	7.0881654987e-03
0.66328409        	7.2035005696e-03
0.66471423        	7.3284281628e-03
0.66614076        	7.4617950906e-03
0.66756339        	7.6020486790e-03
0.66898245        	7.7474172122e-03
0.67039828        	7.8959230092e-03
0.67181125        	8.0454570745e-03
0.67322085        	8.1938060378e-03
0.67462783        	8.3389642229e-03
0.67603308        	8.4791122128e-03
0.67743466        	8.6124223998e-03
0.67883378        	8.7376967465e-03
0.68023064        	8.8539897280e-03
0.68162285        	8.9605629030e-03
0.68301155        	9.0573831784e-03
0.68439599        	9.1447366985e-03
0.68577525        	9.2234028781e-03
0.6871489         	9.2947333702e-03
0.68851604        	9.3606004583e-03
0.68987618        	9.4233984710e-03
0.69123068        	9.4860042799e-03
0.6925798         	9.5514833364e-03
0.69392166        	9.6227832593e-03
0.69525756        	9.7026833327e-03
0.69659346        	9.7936932750e-03
0.69792936        	9.8971247243e-03
0.69926526        	1.0013079404e-02
0.70059682        	1.0139826847e-02
0.70192263        	1.0274350066e-02
0.7032489         	1.0413064418e-02
0.70457553        	1.0550646784e-02
0.70590299        	1.0681018413e-02
0.70723111        	1.0797715976e-02
0.70856018        	1.0894566158e-02
0.70988924        	1.0966164237e-02
0.71121816        	1.1008557440e-02
0.71254624        	1.1019556712e-02
0.71387315        	1.0998939528e-02
0.71519879        	1.0948357682e-02
0.71652308        	1.0871031952e-02
0.7178458         	1.0771335133e-02
0.71916751        	1.0654208452e-02
0.7204883         	1.0524747448e-02
0.72180909        	1.0387692433e-02
0.72313034        	1.0247237484e-02
0.72445277        	1.0106814968e-02
0.72577707        	9.9690983734e-03
0.72710385        	9.8360275978e-03
0.72843366        	9.7089187853e-03
0.72976681        	9.5886042078e-03
0.73110377        	9.4755019631e-03
0.73244463        	9.3697443686e-03
0.73378944        	9.2712349592e-03
0.73513821        	9.1796976444e-03
0.73649092        	9.0946801752e-03
0.73784746        	9.0155622771e-03
0.73920771        	8.9415819005e-03
0.74057169        	8.8718398593e-03
0.74193921        	8.8053505693e-03
0.74331012        	8.7410714430e-03
0.74468444        	8.6779431145e-03
0.74606192        	8.6149626484e-03
0.74744248        	8.5512299208e-03
0.74882631        	8.4859847937e-03
0.75021287        	8.4187119873e-03
0.75160242        	8.3491117008e-03
0.75299447        	8.2771745597e-03
0.75438962        	8.2030863176e-03
0.75578765        	8.1272975137e-03
0.75718891        	8.0503964556e-03
0.75859384        	7.9730568846e-03
0.76000307        	7.8959669338e-03
0.76141717        	7.8197708555e-03
0.76283661        	7.7450250086e-03
0.76426245        	7.6721265877e-03
0.76569487        	7.6013833616e-03
0.7671345         	7.5329546613e-03
0.76858158        	7.4669120737e-03
0.77003586        	7.4032696202e-03
0.77149651        	7.3420121274e-03
0.77296354        	7.2830626665e-03
0.77443537        	7.2263996020e-03
0.7759106         	7.1719970246e-03
0.77738848        	7.1198252192e-03
0.77886636        	7.0699391965e-03
0.78034423        	7.0223248282e-03
0.78182211        	6.9769933547e-03
0.78329999        	6.9339782595e-03
0.78477786        	6.8933306733e-03
0.78625574        	6.8551198376e-03
0.78773362        	6.8194307832e-03
0.7892115         	6.7863825058e-03
0.79068937        	6.7561497294e-03
0.79216725        	6.7289857004e-03
0.79364513        	6.7052474946e-03
0.79512301        	6.6853989834e-03
0.79660088        	6.6700091892e-03
0.79807876        	6.6597387416e-03
0.79955664        	6.6553275198e-03
0.80103951        	6.6575894787e-03
0.80252228        	6.6673747405e-03
0.80400179        	6.6854523614e-03
0.80547714        	6.7125163429e-03
0.80694784        	6.7491656548e-03
0.80841345        	6.7958773403e-03
0.80987403        	6.8530091903e-03
0.81132948        	6.9207515861e-03
0.81277988        	6.9991218121e-03
0.81422564        	7.0879820192e-03
0.8156668         	7.1869704069e-03
0.81710371        	7.2955248774e-03
0.81853647        	7.4128221677e-03
0.81996539        	7.5378020928e-03
0.82139069        	7.6691295439e-03
0.82281238        	7.8052236009e-03
0.82423094        	7.9443650063e-03
0.82564618        	8.0846425177e-03
0.82705853        	8.2241655309e-03
0.82846802        	8.3610527362e-03
0.82987474        	8.4935572956e-03
0.83127871        	8.6201359985e-03
0.83267981        	8.7395227017e-03
0.83407787        	8.8507718567e-03
0.83547266        	8.9533129542e-03
0.83686363        	9.0469523000e-03
0.83825061        	9.1319527707e-03
0.8396331         	9.2089958373e-03
0.84101069        	9.2792280237e-03
0.84238307        	9.3442556892e-03
0.84375           	9.4061007847e-03
0.84511164        	9.4671250217e-03
0.84646789        	9.5298790201e-03
0.84781918        	9.5969487859e-03
0.84916594        	9.6707016119e-03
0.8505087         	9.7530352707e-03
0.85184819        	9.8451425257e-03
0.85318498        	9.9472683546e-03
0.85451997        	1.0058573852e-02
0.85585369        	1.0177014264e-02
0.85718742        	1.0299458733e-02
0.85852115        	1.0421654312e-02
0.85985487        	1.0538597735e-02
0.8611886         	1.0644922473e-02
0.86252232        	1.0735345832e-02
0.86385605        	1.0805142740e-02
0.86518977        	1.0850569077e-02
0.8665235         	1.0869196251e-02
0.86785547        	1.0860130981e-02
0.86918651        	1.0824057887e-02
0.87051755        	1.0762967485e-02
0.87184858        	1.0679961682e-02
0.87317648        	1.0579146334e-02
0.87450438        	1.0464559727e-02
0.87583227        	1.0340419794e-02
0.87716017        	1.0210668956e-02
0.87849101        	1.0078481154e-02
0.87982284        	9.9469159596e-03
0.8811556         	9.8182423243e-03
0.88249208        	9.6938826813e-03
0.88383045        	9.5751826470e-03
0.88517232        	9.4627464089e-03
0.88651769        	9.3569771980e-03
0.88786592        	9.2580352959e-03
0.88921851        	9.1657089755e-03
0.89057468        	9.0797688724e-03
0.89193084        	8.9999681727e-03
0.89329702        	8.9251633001e-03
0.89466498        	8.8550934341e-03
0.89603293        	8.7890007685e-03
0.89740089        	8.7259766244e-03
0.89876884        	8.6650957807e-03
0.90013812        	8.6053874232e-03
0.90152097        	8.5454870794e-03
0.90290679        	8.4850856014e-03
0.90429548        	8.4235627129e-03
0.90568704        	8.3604898231e-03
0.90708144        	8.2956492637e-03
0.90847877        	8.2290227544e-03
0.90987915        	8.1607944118e-03
0.91128275        	8.0913217598e-03
0.91268985        	8.0210785080e-03
0.91410088        	7.9506029702e-03
0.91551621        	7.8804452657e-03
0.91693642        	7.8111144413e-03
0.91836193        	7.7430539221e-03
0.91979313        	7.6766149382e-03
0.92123036        	7.6120525369e-03
0.92267371        	7.5495417857e-03
0.92412308        	7.4891861904e-03
0.92557814        	7.4310384976e-03
0.92703834        	7.3751177007e-03
0.92850315        	7.3214181120e-03
0.9299715         	7.2699425718e-03
0.93144254        	7.2206836639e-03
0.93291539        	7.1736442550e-03
0.93438978        	7.1288216317e-03
0.93586417        	7.0862658932e-03
0.93733855        	7.0459981639e-03
0.93881294        	7.0080601160e-03
0.94028733        	6.9725142524e-03
0.94176172        	6.9394488637e-03
0.94323677        	6.9089759861e-03
0.94471305        	6.8812587359e-03
0.94618994        	6.8565527475e-03
0.94766824        	6.8351713045e-03
0.94914739        	6.8175371459e-03
0.95062782        	6.8041490311e-03
0.95210824        	6.7955977624e-03
0.95358867        	6.7925205274e-03
0.95506696        	6.7955943506e-03
0.95654367        	6.8055069066e-03
0.95801787        	6.8229271682e-03
0.95948898        	6.8484755883e-03
0.96095581        	6.8826803434e-03
0.9624188         	6.9260063300e-03
0.96387711        	6.9787652885e-03
0.9653313         	7.0411793309e-03
0.96678064        	7.1132728185e-03
0.96822587        	7.1949448805e-03
0.96966652        	7.2858566072e-03
0.97110307        	7.3855284593e-03
0.9725357         	7.4932526083e-03
0.9739646         	7.6081099004e-03
0.97538998        	7.7289582320e-03
0.97681231        	7.8544788066e-03
0.97823052        	7.9830616148e-03
0.97964589        	8.1131770573e-03
0.98105937        	8.2432176744e-03
0.98246808        	8.3712535330e-03
0.98387627        	8.4960578707e-03
0.98527918        	8.6157896006e-03
0.98668116        	8.7296053431e-03
0.98807927        	8.8363473572e-03
0.98947351        	8.9354141576e-03
0.99086775        	9.0267983247e-03
0.99225375        	9.1101076509e-03
0.99363701        	9.1861943964e-03
0.99502027        	9.2560640836e-03
0.99640353        	9.3209560354e-03
0.99778679        	9.3824828807e-03
0.99917004        	9.4425742177e-03
1.0005439         	9.5029762690e-03
1.0019008         	9.5654888840e-03
1.0032536         	9.6326368273e-03
1.0046028         	9.7060710493e-03
1.0059488         	9.7869097495e-03
1.0072922         	9.8755468154e-03
1.0086335         	9.9715118156e-03
1.0099732         	1.0073389805e-02
1.0113117         	1.0178818313e-02
1.0126494         	1.0284561870e-02
1.0139871         	1.0386772653e-02
1.0153242         	1.0481097604e-02
1.0166608         	1.0563182350e-02
1.0179975         	1.0628994890e-02
1.0193341         	1.0675118992e-02
1.0206707         	1.0699077277e-02
1.0220072         	1.0699527926e-02
1.0233427         	1.0676370139e-02
1.0246782         	1.0630647277e-02
1.026013          	1.0564439608e-02
1.0273473         	1.0480571948e-02
1.0286816         	1.0382322896e-02
1.0300159         	1.0273190905e-02
1.0313511         	1.0156555432e-02
1.032687          	1.0035617986e-02
1.0340242         	9.9131297435e-03
1.0353631         	9.7914027018e-03
1.0367041         	9.6722626138e-03
1.0380474         	9.5571008096e-03
1.0393935         	9.4468972570e-03
1.0407426         	9.3422816206e-03
1.0420947         	9.2436117624e-03
1.0434502         	9.1509864614e-03
1.0448089         	9.0643158410e-03
1.046171          	8.9833365514e-03
1.0475364         	8.9076612465e-03
1.0489052         	8.8367465768e-03
1.0502773         	8.7699746043e-03
1.0516523         	8.7066389856e-03
1.0530307         	8.6459646661e-03
1.0544119         	8.5871747641e-03
1.0557963         	8.5294895889e-03
1.0571835         	8.4722159661e-03
1.0585735         	8.4147255297e-03
1.0599666         	8.3565204818e-03
1.0613624         	8.2972870849e-03
1.062761          	8.2368532349e-03
1.0641626         	8.1752241180e-03
1.0655673         	8.1125500092e-03
1.0669755         	8.0491088856e-03
1.0683876         	7.9852607823e-03
1.0698035         	7.9214381391e-03
1.0712235         	7.8580640967e-03
1.0726483         	7.7955214689e-03
1.0740781         	7.7341545058e-03
1.0755129         	7.6742564222e-03
1.0769527         	7.6160467538e-03
1.0783979         	7.5596702539e-03
1.0798477         	7.5052595124e-03
1.0813028         	7.4528502697e-03
1.0827619         	7.4025124766e-03
1.0842227         	7.3543301412e-03
1.0856888         	7.3081903745e-03
1.0871566         	7.2642030174e-03
1.0886244         	7.2224178716e-03
1.0900923         	7.1828441753e-03
1.0915601         	7.1455060459e-03
1.0930279         	7.1104460977e-03
1.0944957         	7.0777286210e-03
1.0959635         	7.0474441631e-03
1.0974313         	7.0197163034e-03
1.0988991         	6.9947120788e-03
1.1003682         	6.9726377046e-03
1.1018413         	6.9537564404e-03
1.1033152         	6.9384881944e-03
1.104789          	6.9272752093e-03
1.1062629         	6.9206141084e-03
1.1077364         	6.9190536543e-03
1.1092087         	6.9231714229e-03
1.1106795         	6.9335548750e-03
1.112148          	6.9507776320e-03
1.1136137         	6.9753784014e-03
1.1150763         	7.0078335591e-03
1.1165354         	7.0485380331e-03
1.1179908         	7.0977907021e-03
1.1194421         	7.1557646468e-03
1.1208895         	7.2225067148e-03
1.1223329         	7.2979255729e-03
1.1237723         	7.3817388497e-03
1.1252078         	7.4735035964e-03
1.1266396         	7.5725941911e-03
1.1280679         	7.6782256465e-03
1.1294926         	7.7893753840e-03
1.1309141         	7.9049016685e-03
1.1323324         	8.0235021985e-03
1.1337475         	8.1437605200e-03
1.1351598         	8.2642162547e-03
1.1365691         	8.3833951423e-03
1.1379757         	8.4998902177e-03
1.1393796         	8.6124008160e-03
1.1407805         	8.7197955485e-03
1.1421785         	8.8212055301e-03
1.1435735         	8.9160098696e-03
1.1449653         	9.0038723830e-03
1.1463536         	9.0847957957e-03
1.1477384         	9.1591151594e-03
1.1491195         	9.2275044866e-03
1.1504967         	9.2909505841e-03
1.1518699         	9.3507388696e-03
1.153239          	9.4083937037e-03
1.1546042         	9.4655967211e-03
1.1559655         	9.5240826751e-03
1.1573233         	9.5855143407e-03
1.1586774         	9.6512847431e-03
1.1600288         	9.7224451437e-03
1.1613776         	9.7994677379e-03
1.1627241         	9.8821717299e-03
1.1640692         	9.9696570465e-03
1.1654124         	1.0060187875e-02
1.1667556         	1.0151465402e-02
1.1680966         	1.0240339647e-02
1.1694371         	1.0323522638e-02