# Region type :   sampledSurface planeZ3p
# Faces           : 1069
# Area            : 8.2953558042e-02
# Scale factor    : 1.0000000000e+00
# Time            	areaAverage(p_rgh)
0.0022358089      	6.9000012676e+06
0.015074595       	6.9097621548e+06
0.019417862       	6.9328209579e+06
0.02396418        	6.9547149206e+06
0.029046906       	6.9531069654e+06
0.035079147       	6.9531797326e+06
0.042848386       	6.9543229227e+06
0.050267977       	6.9569480472e+06
0.059018304       	6.9476072678e+06
0.064555108       	6.9302792360e+06
0.069333754       	6.9111274878e+06
0.074031986       	6.9006864897e+06
0.079076699       	6.9011164089e+06
0.085546879       	6.9014486533e+06
0.094934731       	6.8914270435e+06
0.10313922        	6.8691322627e+06
0.10873802        	6.8558062361e+06
0.11382733        	6.8508446776e+06
0.11956691        	6.8493407220e+06
0.1278983         	6.8455171182e+06
0.1384236         	6.8519005007e+06
0.1463068         	6.8696774608e+06
0.15376161        	6.8876190705e+06
0.16411886        	6.8974125319e+06
0.17496074        	6.9086392403e+06
0.18389202        	6.9246485203e+06
0.19389938        	6.9398736701e+06
0.20287549        	6.9495783447e+06
0.21087766        	6.9534180670e+06
0.21893102        	6.9482538640e+06
0.22607067        	6.9371200085e+06
0.23281448        	6.9243613411e+06
0.23934335        	6.9133537998e+06
0.24537221        	6.9061278612e+06
0.2513013         	6.8998464902e+06
0.2570584         	6.8928856854e+06
0.26263488        	6.8846854282e+06
0.26836429        	6.8755103872e+06
0.2743891         	6.8663976962e+06
0.28048693        	6.8589682744e+06
0.28672054        	6.8538057457e+06
0.29318554        	6.8515929316e+06
0.2996755         	6.8539553240e+06
0.30670508        	6.8622172927e+06
0.31410293        	6.8745419723e+06
0.32152802        	6.8861552573e+06
0.32883437        	6.8951463393e+06
0.33614824        	6.9033959024e+06
0.34372807        	6.9135298327e+06
0.35136426        	6.9255780965e+06
0.35869725        	6.9362543024e+06
0.36572164        	6.9433113228e+06
0.37256522        	6.9463465423e+06
0.37924419        	6.9453139476e+06
0.38568366        	6.9403259867e+06
0.39186775        	6.9325189617e+06
0.39789164        	6.9234653115e+06
0.40376549        	6.9149200291e+06
0.4095331         	6.9075350069e+06
0.4152862         	6.9008393393e+06
0.42103623        	6.8938001360e+06
0.42677634        	6.8858005731e+06
0.43258015        	6.8770723566e+06
0.43853792        	6.8685190214e+06
0.44464555        	6.8614992346e+06
0.45090736        	6.8571321257e+06
0.45735724        	6.8561564971e+06
0.46401328        	6.8589912610e+06
0.47087205        	6.8656178747e+06
0.47790224        	6.8746688877e+06
0.48503055        	6.8840836814e+06
0.49215886        	6.8927324253e+06
0.49928717        	6.9012495005e+06
0.50654305        	6.9110069839e+06
0.51391578        	6.9220319401e+06
0.52124611        	6.9322518990e+06
0.52834646        	6.9391388302e+06
0.53524346        	6.9418537919e+06
0.54194588        	6.9407870443e+06
0.54843601        	6.9366869766e+06
0.55468804        	6.9304989689e+06
0.56075064        	6.9233765451e+06
0.56666094        	6.9160962710e+06
0.57248489        	6.9090470275e+06
0.57827754        	6.9019831969e+06
0.5840702         	6.8944986665e+06
0.58986285        	6.8864699063e+06
0.59565551        	6.8782828007e+06
0.60151335        	6.8707209399e+06
0.60764366        	6.8645948924e+06
0.61392866        	6.8611015155e+06
0.62038347        	6.8608351790e+06
0.62701967        	6.8638222536e+06
0.63380925        	6.8694817210e+06
0.64070947        	6.8768038097e+06
0.64768621        	6.8847369096e+06
0.65472885        	6.8929165430e+06
0.66185577        	6.9017315229e+06
0.66908725        	6.9115307361e+06
0.67636084        	6.9216813678e+06
0.68362701        	6.9304591221e+06
0.69075048        	6.9360747840e+06
0.69760936        	6.9379278151e+06
0.70431512        	6.9364742494e+06
0.71076753        	6.9325300297e+06
0.71700918        	6.9269841937e+06
0.72308645        	6.9206884025e+06
0.72903267        	6.9141125194e+06
0.73490939        	6.9072997275e+06
0.74075449        	6.9000973630e+06
0.74659308        	6.8925105576e+06
0.75247928        	6.8846858440e+06
0.75844972        	6.8771470710e+06
0.76454871        	6.8707155156e+06
0.77078072        	6.8662395376e+06
0.77715572        	6.8644048619e+06
0.78369121        	6.8655103312e+06
0.79034786        	6.8692370905e+06
0.79700451        	6.8747771878e+06
0.8037992         	6.8814796492e+06
0.81076619        	6.8889147920e+06
0.8178173         	6.8970589854e+06
0.82496651        	6.9060542800e+06
0.8321749         	6.9154584466e+06
0.83938614        	6.9241046446e+06
0.84652367        	6.9305194700e+06
0.85350795        	6.9337991204e+06
0.86028765        	6.9339224759e+06
0.8668461         	6.9314417402e+06
0.87319812        	6.9271110787e+06
0.87937931        	6.9216814731e+06
0.88542134        	6.9156890583e+06
0.89137181        	6.9093199888e+06
0.89732229        	6.9024764704e+06
0.90323708        	6.8952535510e+06
0.90915038        	6.8879074782e+06
0.91513538        	6.8808228902e+06
0.92123043        	6.8746775410e+06
0.92746791        	6.8701745463e+06
0.93383245        	6.8678839243e+06
0.94032839        	6.8681198303e+06
0.94696481        	6.8708009537e+06
0.95372123        	6.8754445291e+06
0.96057499        	6.8814275877e+06
0.96751586        	6.8882701344e+06
0.97453265        	6.8958571340e+06
0.98160691        	6.9041608720e+06
0.98881559        	6.9128684780e+06
0.99603134        	6.9209006929e+06
1.0031876         	6.9270153108e+06
1.010175          	6.9304039923e+06
1.0169856         	6.9310180679e+06
1.0235836         	6.9292267733e+06
1.0299801         	6.9256137846e+06
1.0362105         	6.9207915023e+06
1.0423101         	6.9152524674e+06
1.04832           	6.9092537268e+06
1.0542888         	6.9028274333e+06
1.0602253         	6.8960742619e+06
1.066186          	6.8892174822e+06
1.0722053         	6.8826737969e+06
1.0783354         	6.8770391751e+06
1.0845902         	6.8729237719e+06
1.0909845         	6.8707769516e+06
1.0974241         	6.8708190858e+06
1.1039837         	6.8729849448e+06
1.1107137         	6.8769904832e+06
1.1175464         	6.8823806370e+06
1.1244692         	6.8887386614e+06
1.131469          	6.8958433918e+06
1.1385409         	6.9035695011e+06
1.1456638         	6.9114895004e+06
1.1528054         	6.9187592587e+06
1.1598818         	6.9243414240e+06
1.1668582         	6.9275884313e+06
1.1736852         	6.9283906789e+06
1.180318          	6.9270195509e+06
1.186761          	6.9239281978e+06
1.1930653         	6.9195868090e+06
1.1993696         	6.9143417912e+06
