# Solver information
# Time            	H2_solver         	H2_initial        	H2_final          	H2_iters          	H2_converged      	U_solver          	Ux_initial        	Ux_final          	Ux_iters          	Uy_initial        	Uy_final          	Uy_iters          	Uz_initial        	Uz_final          	Uz_iters          	U_converged       	k_solver          	k_initial         	k_final           	k_iters           	k_converged       	omega_solver      	omega_initial     	omega_final       	omega_iters       	omega_converged   	p_rgh_solver      	p_rgh_initial     	p_rgh_final       	p_rgh_iters       	p_rgh_converged   
1.200048e-05      	DILUPBiCGStab	1.0000000000e+00	1.8207300710e-04	1	true	smoothSolver	1.0000000000e+00	2.1590496670e-12	4	1.0000000000e+00	5.3024120880e-12	4	1.0000000000e+00	2.7164830110e-08	2	false	DILUPBiCGStab	1.0000000000e+00	5.5235213760e-10	2	true	DILUPBiCGStab	4.3128433320e-04	8.7881631430e-08	1	true	DICPCG	6.2085438820e-01	8.9389748370e-04	3	true
2.6401747e-05     	DILUPBiCGStab	7.0169167510e-02	9.8701748920e-06	1	true	smoothSolver	3.0298891830e-01	2.2136868620e-08	2	1.7049086910e-01	1.7504301260e-08	2	1.8250186240e-01	6.6123602540e-09	2	false	DILUPBiCGStab	5.5561933770e-01	9.1003823480e-08	1	true	DILUPBiCGStab	2.1233420470e-04	4.4083711600e-08	1	true	DICPCG	4.7512214910e-01	1.4620479670e-03	3	true
4.3683268e-05     	DILUPBiCGStab	4.2759925060e-02	7.3742232590e-06	1	true	smoothSolver	2.3572396930e-01	1.8701858610e-08	2	1.2197030410e-01	1.2291217430e-08	2	1.3615420760e-01	5.2753754540e-09	2	false	DILUPBiCGStab	3.4030437230e-01	7.9719476490e-08	1	true	DILUPBiCGStab	2.3315526300e-04	5.8150971810e-08	1	true	DICPCG	3.9306217020e-01	2.5053171080e-03	3	true
6.4421093e-05     	DILUPBiCGStab	3.2401463630e-02	7.8496097210e-06	1	true	smoothSolver	1.9667941820e-01	1.6061659440e-08	2	9.9368516210e-02	1.0135719120e-08	2	1.1362800740e-01	4.6039064550e-09	2	false	DILUPBiCGStab	2.5230666000e-01	8.4158886190e-08	1	true	DILUPBiCGStab	2.5150403160e-04	7.6574978660e-08	1	true	DICPCG	3.4294695750e-01	1.1082845670e-03	4	true
8.9305451e-05     	DILUPBiCGStab	2.7035229290e-02	9.5594860040e-06	1	true	smoothSolver	1.6862674260e-01	1.6440099410e-08	2	8.5699612890e-02	1.0004134640e-08	2	1.0005240380e-01	4.8356153880e-09	2	false	DILUPBiCGStab	2.0982574490e-01	9.9456710730e-08	1	true	DILUPBiCGStab	2.7674962770e-04	1.2903388510e-10	1	true	DICPCG	3.4664912670e-01	2.2971711620e-03	4	true
0.00011916519     	DILUPBiCGStab	2.3788987460e-02	1.2654094760e-05	1	true	smoothSolver	1.4535914040e-01	1.9677643750e-08	2	7.6239547230e-02	1.1405013220e-08	2	9.0883172970e-02	5.8946755040e-09	2	false	DILUPBiCGStab	1.8641035130e-01	8.7609654310e-10	2	true	DILUPBiCGStab	3.0901194570e-04	1.8996266760e-10	1	true	DICPCG	3.9019639110e-01	2.0298680530e-03	5	true
0.00015499046     	DILUPBiCGStab	2.1619939260e-02	1.7216012380e-05	1	true	smoothSolver	1.2317462950e-01	2.5918762890e-08	2	6.9055611130e-02	1.4213940200e-08	2	8.4127400360e-02	7.8548026730e-09	2	false	DILUPBiCGStab	1.7047086530e-01	1.3450009720e-09	2	true	DILUPBiCGStab	3.4883960560e-04	2.8444374490e-10	1	true	DICPCG	4.3716060980e-01	2.3878721310e-03	6	true
0.00019797152     	DILUPBiCGStab	2.0064264740e-02	2.3474395880e-05	1	true	smoothSolver	1.0017616170e-01	3.7110952320e-08	2	6.3490462530e-02	1.9193605620e-08	2	7.9034048640e-02	1.1195612470e-08	2	false	DILUPBiCGStab	1.5773844820e-01	2.1047428790e-09	2	true	DILUPBiCGStab	3.9664196160e-04	4.3222343540e-10	1	true	DICPCG	4.4757272140e-01	3.2353969130e-03	7	true
0.00024954879     	DILUPBiCGStab	1.8886614890e-02	3.1503119080e-05	1	true	smoothSolver	7.9839307820e-02	5.9339633370e-08	2	5.8919083030e-02	2.8480071170e-08	2	7.4836548610e-02	1.7678117880e-08	2	false	DILUPBiCGStab	1.4622252280e-01	3.3423932930e-09	2	true	DILUPBiCGStab	4.4969715550e-04	6.6552975000e-10	1	true	DICPCG	4.1606358210e-01	1.9439451610e-03	9	true
0.00031142873     	DILUPBiCGStab	1.7949374140e-02	4.2754507360e-05	1	true	smoothSolver	8.2072227730e-02	3.3657282190e-11	4	5.6144412580e-02	4.3528190270e-08	2	7.2071092160e-02	2.8163128800e-08	2	false	DILUPBiCGStab	1.3539890910e-01	5.3749268860e-09	2	true	DILUPBiCGStab	5.1017339970e-04	1.0393637570e-09	1	true	DICPCG	3.5674922970e-01	2.5062866900e-03	10	true
0.000385657       	DILUPBiCGStab	1.7152180230e-02	5.8412291740e-05	1	true	smoothSolver	1.2100232120e-01	9.1887716580e-11	4	5.4493731380e-02	7.2482810760e-08	2	7.0282734060e-02	5.0384633730e-08	2	false	DILUPBiCGStab	1.2566884780e-01	8.7303572520e-09	2	true	DILUPBiCGStab	5.8157897270e-04	1.6488601450e-09	1	true	DICPCG	2.8949815180e-01	1.9798727440e-03	12	true
0.00047475749     	DILUPBiCGStab	1.6419480780e-02	8.0553731340e-05	1	true	smoothSolver	1.9895440460e-01	2.6409836530e-10	4	5.4021333240e-02	4.6850935520e-11	4	6.9431297580e-02	9.7507517610e-08	2	false	DILUPBiCGStab	1.2091844710e-01	1.4361262950e-08	2	true	DILUPBiCGStab	6.6379783210e-04	2.6550690340e-09	1	true	DICPCG	2.8320030680e-01	2.5390879470e-03	14	true
0.00058165893     	DILUPBiCGStab	1.5703216150e-02	1.0918654380e-04	1	true	smoothSolver	2.7774292830e-01	5.9446013960e-10	4	5.1810608620e-02	9.5363209310e-11	4	6.7164065770e-02	6.5758342600e-11	4	false	DILUPBiCGStab	1.2242364930e-01	2.3909521740e-08	2	true	DILUPBiCGStab	7.6949760110e-04	4.3150980580e-09	1	true	DICPCG	2.9262527460e-01	2.7330120090e-03	18	true
0.00070994066     	DILUPBiCGStab	1.5029114910e-02	1.4612113680e-04	1	true	smoothSolver	2.6734901730e-01	1.0727324440e-09	4	4.6460668120e-02	2.1062339200e-10	4	6.2782099330e-02	1.6971447110e-10	4	false	DILUPBiCGStab	1.2268662310e-01	3.9296508340e-08	2	true	DILUPBiCGStab	8.6209572100e-04	7.0600929850e-09	1	true	DICPCG	3.9148299040e-01	3.0422644040e-03	22	true
0.00086387873     	DILUPBiCGStab	1.4402730430e-02	1.9255737150e-04	1	true	smoothSolver	1.9679969910e-01	1.8387878780e-09	4	3.8124358400e-02	4.7948830330e-10	4	5.6894584560e-02	4.2142714830e-10	4	false	DILUPBiCGStab	1.2036078660e-01	6.4114893390e-08	2	true	DILUPBiCGStab	9.4788851070e-04	1.1696998780e-08	1	true	DICPCG	4.6421818770e-01	3.9795349260e-03	25	true
0.0010484898      	DILUPBiCGStab	1.3816652070e-02	2.4248359480e-04	1	true	smoothSolver	1.2989647990e-01	3.6167182940e-09	4	2.7437197490e-02	1.0050750470e-09	4	5.0814379870e-02	9.1756838360e-10	4	false	DILUPBiCGStab	1.1543859720e-01	3.4367491390e-09	2	true	DILUPBiCGStab	1.0458074710e-03	1.9505969650e-08	1	true	DICPCG	4.7004721740e-01	4.6698577650e-03	28	true
0.0012698578      	DILUPBiCGStab	1.3280176520e-02	2.9261261920e-04	1	true	smoothSolver	7.3556675810e-02	8.5177319400e-09	4	1.5935124670e-02	2.3028339740e-09	4	4.6372628010e-02	2.1659992890e-09	4	false	DILUPBiCGStab	1.0967988960e-01	6.3332164990e-09	2	true	DILUPBiCGStab	1.1541321820e-03	3.2612284540e-08	1	true	DICPCG	4.3517730430e-01	4.1978542170e-03	34	true
0.0015352614      	DILUPBiCGStab	1.2824459030e-02	3.4419154910e-04	1	true	smoothSolver	7.1490786140e-02	2.4593135910e-08	4	1.5305080660e-02	6.2077787220e-09	4	4.9431036970e-02	5.8612644480e-09	4	false	DILUPBiCGStab	1.0409453120e-01	1.1678333720e-08	2	true	DILUPBiCGStab	1.2766662050e-03	5.8068528620e-08	1	true	DICPCG	3.5884333120e-01	3.3630960990e-03	43	true
0.0018539175      	DILUPBiCGStab	1.2508445210e-02	4.1313942220e-04	1	true	smoothSolver	1.6098162690e-01	8.6520434810e-08	4	3.5241225460e-02	1.9261953890e-08	4	6.1802534490e-02	1.5844414060e-08	4	false	DILUPBiCGStab	1.0002767820e-01	2.1611537900e-08	2	true	DILUPBiCGStab	1.4222175610e-03	4.6060504060e-09	2	true	DICPCG	2.7555388970e-01	2.6454852090e-03	50	true
0.0022358089      	DILUPBiCGStab	1.2312320720e-02	5.1171653400e-04	1	true	smoothSolver	2.8867911890e-01	2.3906138020e-09	6	5.7246327480e-02	6.0641488750e-08	4	7.0751478780e-02	3.6136614590e-08	4	false	DILUPBiCGStab	9.7494841880e-02	3.5928904910e-08	2	true	DILUPBiCGStab	1.5763757630e-03	9.2213235030e-09	2	true	DICPCG	2.9170528780e-01	2.7511375780e-03	54	true
0.0026842685      	DILUPBiCGStab	1.2004460600e-02	6.2587704240e-04	1	true	smoothSolver	3.0369122230e-01	6.9394108230e-09	6	7.1921796110e-02	1.7102445590e-09	6	7.4018917880e-02	7.3458161590e-08	4	false	DILUPBiCGStab	9.4323245210e-02	5.8251695960e-08	2	true	DILUPBiCGStab	1.7059499690e-03	1.6683000450e-08	2	true	DICPCG	3.4545661050e-01	3.4295484610e-03	53	true
0.0031884951      	DILUPBiCGStab	1.1323528230e-02	6.9612097440e-04	1	true	smoothSolver	2.0754259920e-01	1.1950357930e-08	6	6.9710028210e-02	4.1539450730e-09	6	7.1913325910e-02	1.4638034970e-09	6	false	DILUPBiCGStab	8.7335827050e-02	8.0382943810e-08	2	true	DILUPBiCGStab	1.7823074210e-03	8.6232818420e-09	2	true	DICPCG	3.5677254820e-01	3.4608746250e-03	60	true
0.003674985       	DILUPBiCGStab	9.2993260040e-03	5.1424886680e-04	1	true	smoothSolver	1.0462745220e-01	7.9818113310e-09	6	4.8117828950e-02	3.7953350930e-09	6	6.1115997070e-02	1.2445366630e-09	6	false	DILUPBiCGStab	7.1268787910e-02	6.3394858250e-08	2	true	DILUPBiCGStab	1.6342129840e-03	8.8254834370e-08	2	true	DICPCG	3.0732169490e-01	3.0007047610e-03	73	true
0.0041188791      	DILUPBiCGStab	7.3674321730e-03	3.2442100330e-04	1	true	smoothSolver	6.2590891550e-02	3.6941595710e-09	6	3.0383753920e-02	2.1330734950e-09	6	5.0974843330e-02	6.7102607810e-08	4	false	DILUPBiCGStab	5.6867681290e-02	4.5693733970e-08	2	true	DILUPBiCGStab	1.4331075810e-03	3.3514627010e-08	2	true	DICPCG	2.3247119670e-01	2.0838157770e-03	71	true
0.0045357536      	DILUPBiCGStab	6.1212998960e-03	2.2249199670e-04	1	true	smoothSolver	6.6212285310e-02	1.8833665660e-09	6	2.5569458240e-02	1.2095662730e-09	6	4.5244093810e-02	4.8048546620e-08	4	false	DILUPBiCGStab	4.7911466110e-02	3.4346092350e-08	2	true	DILUPBiCGStab	1.2949597760e-03	8.3338803350e-09	2	true	DICPCG	1.7253159890e-01	1.6991870410e-03	66	true
0.0049368638      	DILUPBiCGStab	5.2947143790e-03	1.6465937080e-04	1	true	smoothSolver	6.6980216000e-02	9.7730450330e-10	6	2.3812752340e-02	7.4639294310e-08	4	4.1761721750e-02	3.7858835670e-08	4	false	DILUPBiCGStab	4.2149726150e-02	2.9379729150e-08	2	true	DILUPBiCGStab	1.2032545150e-03	2.8411181850e-08	2	true	DICPCG	1.4407866160e-01	1.3674021540e-03	62	true
0.0053296867      	DILUPBiCGStab	4.7235127260e-03	1.2941207940e-04	1	true	smoothSolver	5.9735341150e-02	7.4611595770e-08	4	2.1056573450e-02	4.5827035600e-08	4	3.9447701900e-02	3.1737655950e-08	4	false	DILUPBiCGStab	3.8248239190e-02	3.1172234200e-08	2	true	DILUPBiCGStab	1.1444966240e-03	1.4509338530e-08	2	true	DICPCG	1.3565452180e-01	1.2462676800e-03	60	true
0.0057225096      	DILUPBiCGStab	4.3505611770e-03	1.1017330220e-04	1	true	smoothSolver	5.0546190050e-02	6.3795454840e-08	4	1.7589519250e-02	2.5198642990e-08	4	3.7962507660e-02	2.8404548530e-08	4	false	DILUPBiCGStab	3.5758214260e-02	4.1191860430e-08	2	true	DILUPBiCGStab	1.1100005550e-03	1.0138308630e-08	2	true	DICPCG	1.2974638190e-01	1.1111358110e-03	61	true
0.0061186335      	DILUPBiCGStab	4.0748931030e-03	9.7698506110e-05	1	true	smoothSolver	4.3341435490e-02	9.5584480850e-08	4	1.4663674830e-02	2.6189333850e-08	4	3.6915350100e-02	2.8125966600e-08	4	false	DILUPBiCGStab	3.3948476570e-02	4.5964492870e-08	2	true	DILUPBiCGStab	1.0842548620e-03	1.0985631710e-08	2	true	DICPCG	1.2299146480e-01	1.1213932160e-03	61	true
0.0065232946      	DILUPBiCGStab	3.8902205510e-03	9.0938528980e-05	1	true	smoothSolver	3.8896290110e-02	1.0569481960e-09	6	1.2836343420e-02	4.4264384950e-08	4	3.6560412420e-02	3.7059433290e-08	4	false	DILUPBiCGStab	3.2816120940e-02	6.7957296820e-08	2	true	DILUPBiCGStab	1.0690358380e-03	9.6150869410e-08	2	true	DICPCG	1.1557433450e-01	1.0718724360e-03	59	true
0.0069387466      	DILUPBiCGStab	3.7508822210e-03	8.6267456250e-05	1	true	smoothSolver	3.7286168500e-02	1.4567537740e-09	6	1.1819631250e-02	6.4719071700e-08	4	3.6241948980e-02	5.0727116680e-08	4	false	DILUPBiCGStab	3.2027277120e-02	2.1542879770e-09	3	true	DILUPBiCGStab	1.0581633130e-03	9.1192845160e-08	2	true	DICPCG	1.0830381870e-01	1.0519353680e-03	57	true
0.0073656331      	DILUPBiCGStab	3.6354968580e-03	8.2509344240e-05	1	true	smoothSolver	3.9476756370e-02	1.8884150850e-09	6	1.1423910500e-02	7.9767719130e-08	4	3.5148167980e-02	7.0324463110e-08	4	false	DILUPBiCGStab	3.1367790520e-02	2.9041253570e-09	3	true	DILUPBiCGStab	1.0468630590e-03	9.6940233970e-08	2	true	DICPCG	1.0161001450e-01	9.7568754770e-04	59	true
0.0078046585      	DILUPBiCGStab	3.5414094770e-03	7.9768985760e-05	1	true	smoothSolver	4.1887161480e-02	2.3414300520e-09	6	1.1344513860e-02	8.9659224610e-08	4	3.3486882760e-02	9.4499868830e-08	4	false	DILUPBiCGStab	3.0847457560e-02	4.0453265150e-09	3	true	DILUPBiCGStab	1.0399803570e-03	8.0340546120e-09	2	true	DICPCG	9.5559569920e-02	8.6918238810e-04	64	true
0.0082543919      	DILUPBiCGStab	3.4501581010e-03	7.6798500430e-05	1	true	smoothSolver	4.2110273620e-02	2.8117471690e-09	6	1.1716760000e-02	8.8316072370e-08	4	3.2092615760e-02	1.4183595830e-09	6	false	DILUPBiCGStab	3.0312515760e-02	5.0495231660e-09	3	true	DILUPBiCGStab	1.0329975700e-03	8.4599515160e-09	2	true	DICPCG	8.9289497220e-02	8.1584106970e-04	67	true
0.0087108377      	DILUPBiCGStab	3.3439179910e-03	7.2673748580e-05	1	true	smoothSolver	4.0393982550e-02	2.9903975320e-09	6	1.2116003560e-02	7.3568315050e-08	4	3.1149242410e-02	1.8502610210e-09	6	false	DILUPBiCGStab	2.9616202930e-02	5.6638730600e-09	3	true	DILUPBiCGStab	1.0199226670e-03	9.5550178380e-09	2	true	DICPCG	8.2448940190e-02	7.9525053500e-04	69	true
0.0091765987      	DILUPBiCGStab	3.2692205850e-03	7.0546334280e-05	1	true	smoothSolver	3.7759813260e-02	3.1621739230e-09	6	1.2307819080e-02	5.3819981650e-08	4	3.0884295540e-02	2.4664475790e-09	6	false	DILUPBiCGStab	2.9147858430e-02	6.3834570290e-09	3	true	DILUPBiCGStab	1.0125347880e-03	8.0339664560e-09	2	true	DICPCG	7.6201315150e-02	7.4919975220e-04	73	true
0.0096471863      	DILUPBiCGStab	3.1749367920e-03	6.7122718950e-05	1	true	smoothSolver	3.4213535140e-02	3.0710674950e-09	6	1.2488566990e-02	3.8580723660e-08	4	3.0328262930e-02	3.0745139600e-09	6	false	DILUPBiCGStab	2.8532236300e-02	7.2863627570e-09	3	true	DILUPBiCGStab	9.9614338940e-04	9.4787535820e-08	2	true	DICPCG	6.9999109830e-02	6.6866048890e-04	76	true
0.010122727       	DILUPBiCGStab	3.0925971450e-03	6.4425625270e-05	1	true	smoothSolver	3.1890964640e-02	3.2468233790e-09	6	1.3152922040e-02	5.0587824900e-08	4	2.9570026160e-02	3.7587806920e-09	6	false	DILUPBiCGStab	2.8036685430e-02	7.2781683950e-09	3	true	DILUPBiCGStab	9.8048411000e-04	9.1729164880e-09	2	true	DICPCG	6.4582910160e-02	6.3168743610e-04	78	true
0.010603355       	DILUPBiCGStab	3.0198118040e-03	6.2172473270e-05	1	true	smoothSolver	3.0534231870e-02	3.6444745090e-09	6	1.3476838590e-02	6.3894715650e-08	4	2.8662912520e-02	4.5171385960e-09	6	false	DILUPBiCGStab	2.7741875230e-02	6.6271278510e-09	3	true	DILUPBiCGStab	9.6685713940e-04	2.3874369540e-08	2	true	DICPCG	5.9904361440e-02	5.7688282900e-04	80	true
0.01108658        	DILUPBiCGStab	2.9396478170e-03	5.9202982180e-05	1	true	smoothSolver	2.9310380640e-02	3.8530273210e-09	6	1.3221391110e-02	6.9114142230e-08	4	2.7512711190e-02	5.1885657960e-09	6	false	DILUPBiCGStab	2.7413834890e-02	6.0806137370e-09	3	true	DILUPBiCGStab	9.4925998480e-04	5.8782613040e-09	2	true	DICPCG	5.5780382410e-02	5.3738085530e-04	81	true
0.011575115       	DILUPBiCGStab	2.8817227240e-03	5.7273399160e-05	1	true	smoothSolver	2.8185346030e-02	4.0011533860e-09	6	1.2564307360e-02	6.7874713290e-08	4	2.6437513140e-02	6.0270499730e-09	6	false	DILUPBiCGStab	2.7337803240e-02	6.8423657870e-09	3	true	DILUPBiCGStab	9.3791248870e-04	6.7392186390e-08	2	true	DICPCG	5.2826389050e-02	4.9608913940e-04	82	true
0.012066364       	DILUPBiCGStab	2.8143013550e-03	5.4715318250e-05	1	true	smoothSolver	2.6962649580e-02	4.0487666860e-09	6	1.1519131160e-02	5.9194329920e-08	4	2.5227355740e-02	6.6861995110e-09	6	false	DILUPBiCGStab	2.7210461730e-02	8.2736369380e-09	3	true	DILUPBiCGStab	9.2293684150e-04	5.0003342090e-08	2	true	DICPCG	5.0808292100e-02	4.8683004290e-04	82	true
0.012563164       	DILUPBiCGStab	2.7671720620e-03	5.3329381890e-05	1	true	smoothSolver	2.5994340200e-02	4.3265789360e-09	6	1.0231103300e-02	5.1299018600e-08	4	2.4070419820e-02	7.5084761000e-09	6	false	DILUPBiCGStab	2.7275893240e-02	9.6189465780e-09	3	true	DILUPBiCGStab	9.1410456010e-04	4.5906664510e-08	2	true	DICPCG	4.9270598630e-02	4.7862909500e-04	82	true
0.013062804       	DILUPBiCGStab	2.7098023430e-03	5.1323901410e-05	1	true	smoothSolver	2.5494418800e-02	4.7602393950e-09	6	8.8124417970e-03	4.9570198020e-08	4	2.2736297480e-02	8.0475962490e-09	6	false	DILUPBiCGStab	2.7253237300e-02	9.4733272020e-09	3	true	DILUPBiCGStab	9.0085265900e-04	4.6312724050e-08	2	true	DICPCG	4.7614366840e-02	4.5566696360e-04	82	true
0.013565331       	DILUPBiCGStab	2.6574800200e-03	4.9499529850e-05	1	true	smoothSolver	2.5810240330e-02	5.3240250190e-09	6	7.3927657940e-03	5.7606713210e-08	4	2.1405394120e-02	8.4794414610e-09	6	false	DILUPBiCGStab	2.7298737910e-02	8.6119030830e-09	3	true	DILUPBiCGStab	8.8920916930e-04	4.9959842630e-08	2	true	DICPCG	4.5943143090e-02	4.4336316360e-04	82	true
0.014070797       	DILUPBiCGStab	2.6100732210e-03	4.7963361800e-05	1	true	smoothSolver	2.6244928800e-02	5.8001412890e-09	6	6.2058143080e-03	6.7262776490e-08	4	2.0156158010e-02	8.7812195460e-09	6	false	DILUPBiCGStab	2.7389796230e-02	7.6120779430e-09	3	true	DILUPBiCGStab	8.7826484240e-04	5.3441465750e-08	2	true	DICPCG	4.4166487420e-02	3.9652777760e-04	83	true
0.014576263       	DILUPBiCGStab	2.5532226010e-03	4.5844648600e-05	1	true	smoothSolver	2.6231600080e-02	5.8658874080e-09	6	5.9408202790e-03	7.0761590030e-08	4	1.9134257540e-02	8.6796518210e-09	6	false	DILUPBiCGStab	2.7380939040e-02	6.5535798540e-09	3	true	DILUPBiCGStab	8.6340002360e-04	5.5515536220e-08	2	true	DICPCG	4.2146646000e-02	3.8873376790e-04	83	true
0.015078755       	DILUPBiCGStab	2.4880222790e-03	4.3296629650e-05	1	true	smoothSolver	2.5705317570e-02	5.5579133670e-09	6	6.2864841950e-03	6.9265125450e-08	4	1.8451862460e-02	8.1995212670e-09	6	false	DILUPBiCGStab	2.7290947930e-02	6.0315952640e-09	3	true	DILUPBiCGStab	8.4539093440e-04	5.6126335900e-08	2	true	DICPCG	3.9942529140e-02	3.6978208060e-04	83	true
0.015578292       	DILUPBiCGStab	2.4296703450e-03	4.0993586040e-05	1	true	smoothSolver	2.4985146150e-02	5.1805906670e-09	6	6.6303882140e-03	6.5890410130e-08	4	1.7961089170e-02	7.6366898160e-09	6	false	DILUPBiCGStab	2.7221321230e-02	6.1728969410e-09	3	true	DILUPBiCGStab	8.2886734740e-04	5.6258092820e-08	2	true	DICPCG	3.7749387060e-02	3.4959447880e-04	83	true
0.016071986       	DILUPBiCGStab	2.3649414720e-03	3.8377966110e-05	1	true	smoothSolver	2.4131653610e-02	4.7133652740e-09	6	6.9592077770e-03	6.1199526660e-08	4	1.7517601020e-02	6.8117666420e-09	6	false	DILUPBiCGStab	2.7058562160e-02	7.4686079200e-09	3	true	DILUPBiCGStab	8.0895666470e-04	5.5170568500e-08	2	true	DICPCG	3.5589613590e-02	3.5503319740e-04	82	true
0.016557119       	DILUPBiCGStab	2.2946945770e-03	3.5546147250e-05	1	true	smoothSolver	2.3108971120e-02	4.2756218520e-09	6	7.5614923680e-03	5.9033761680e-08	4	1.7185540690e-02	5.8328069760e-09	6	false	DILUPBiCGStab	2.6741317760e-02	1.0031605200e-08	3	true	DILUPBiCGStab	7.8683220800e-04	5.4388761600e-08	2	true	DICPCG	3.3779166400e-02	3.3230286640e-04	81	true
0.017033936       	DILUPBiCGStab	2.2321530220e-03	3.3136343860e-05	1	true	smoothSolver	2.2047317230e-02	3.9386863590e-09	6	8.1839223190e-03	6.1866990910e-08	4	1.6945446670e-02	4.9585727700e-09	6	false	DILUPBiCGStab	2.6425972480e-02	1.4325000780e-08	3	true	DILUPBiCGStab	7.6595049660e-04	5.4656941380e-08	2	true	DICPCG	3.2549687730e-02	3.2116123540e-04	79	true
0.017500037       	DILUPBiCGStab	2.1646935490e-03	3.0608958650e-05	1	true	smoothSolver	2.0877898780e-02	3.6097850100e-09	6	8.5425324770e-03	6.4351041880e-08	4	1.6616562820e-02	4.0661581130e-09	6	false	DILUPBiCGStab	2.5987445800e-02	2.1094657530e-08	3	true	DILUPBiCGStab	7.4283575140e-04	5.9870690680e-08	2	true	DICPCG	3.1515348510e-02	3.0364396540e-04	77	true
0.017955838       	DILUPBiCGStab	2.1040960750e-03	2.8449646270e-05	1	true	smoothSolver	1.9772478580e-02	3.3608947680e-09	6	8.6306781350e-03	6.5143523080e-08	4	1.6269830120e-02	3.3514863300e-09	6	false	DILUPBiCGStab	2.5552021370e-02	3.3976126530e-08	3	true	DILUPBiCGStab	7.2038029620e-04	8.1621604080e-08	2	true	DICPCG	3.0666955900e-02	2.8289940290e-04	75	true
0.01840173        	DILUPBiCGStab	2.0492977830e-03	2.6612830840e-05	1	true	smoothSolver	1.8753251880e-02	3.1538496790e-09	6	8.4686137070e-03	6.4233977150e-08	4	1.5904989960e-02	2.8126103800e-09	6	false	DILUPBiCGStab	2.5148527330e-02	4.8420222490e-08	3	true	DILUPBiCGStab	6.9917670650e-04	2.2537698440e-08	2	true	DICPCG	2.9975419830e-02	2.9223258360e-04	73	true
0.018838084       	DILUPBiCGStab	1.9991964860e-03	2.5025003770e-05	1	true	smoothSolver	1.7842119140e-02	2.9485735720e-09	6	8.0983196870e-03	6.1909739940e-08	4	1.5559089010e-02	2.3568631990e-09	6	false	DILUPBiCGStab	2.4703524360e-02	1.9854061600e-08	3	true	DILUPBiCGStab	6.7863708900e-04	1.5259398590e-08	2	true	DICPCG	2.9432332040e-02	2.9179838440e-04	70	true
0.019265252       	DILUPBiCGStab	1.9527651850e-03	2.3642732930e-05	1	true	smoothSolver	1.7005993380e-02	2.7364454150e-09	6	7.5614289200e-03	5.8791809880e-08	4	1.5201299510e-02	1.9812779860e-09	6	false	DILUPBiCGStab	2.4169673700e-02	7.9137123530e-09	3	true	DILUPBiCGStab	6.5939171130e-04	1.1519882760e-08	2	true	DICPCG	2.9018523630e-02	2.8685045870e-04	67	true
0.019685746       	DILUPBiCGStab	1.9186741240e-03	2.2757745910e-05	1	true	smoothSolver	1.6288708390e-02	2.6041677310e-09	6	6.9288732340e-03	5.6598826620e-08	4	1.4883177610e-02	1.7069844780e-09	6	false	DILUPBiCGStab	2.3605788670e-02	8.6571588630e-08	3	true	DILUPBiCGStab	6.4391272560e-04	1.2022462240e-08	2	true	DICPCG	2.8765136900e-02	2.8052020350e-04	62	true
0.020097614       	DILUPBiCGStab	1.8764947240e-03	2.1645816940e-05	1	true	smoothSolver	1.5539732230e-02	2.4075698460e-09	6	6.1680833630e-03	5.3450444470e-08	4	1.4456973150e-02	1.4137892950e-09	6	false	DILUPBiCGStab	2.2819328980e-02	8.7689234080e-08	3	true	DILUPBiCGStab	6.2602056150e-04	1.2855498560e-08	2	true	DICPCG	2.8587777520e-02	2.6497477670e-04	58	true
0.02050321        	DILUPBiCGStab	1.8444771960e-03	2.0881357530e-05	1	true	smoothSolver	1.4907221480e-02	2.2839111720e-09	6	5.3797051600e-03	5.1583427820e-08	4	1.4066810350e-02	1.1812544010e-09	6	false	DILUPBiCGStab	2.2157864080e-02	6.5838991880e-09	3	true	DILUPBiCGStab	6.1148602400e-04	1.3641634270e-08	2	true	DICPCG	2.8658332560e-02	2.7368035110e-04	56	true
0.020904709       	DILUPBiCGStab	1.8212939490e-03	2.0392156370e-05	1	true	smoothSolver	1.4405883590e-02	2.2171875810e-09	6	4.6418076550e-03	5.0977975630e-08	4	1.3716382400e-02	9.2934202110e-08	4	false	DILUPBiCGStab	2.1604695800e-02	1.0010033030e-08	3	true	DILUPBiCGStab	5.9988431260e-04	1.4841555160e-08	2	true	DICPCG	2.8825306650e-02	2.7454672890e-04	56	true
0.021302172       	DILUPBiCGStab	1.7972048610e-03	1.9864027850e-05	1	true	smoothSolver	1.3969641610e-02	2.1502180190e-09	6	3.9659617260e-03	5.0874645610e-08	4	1.3385108020e-02	7.7958000490e-08	4	false	DILUPBiCGStab	2.1057274560e-02	2.5200939350e-08	3	true	DILUPBiCGStab	5.8803743660e-04	1.5993669310e-08	2	true	DICPCG	2.8968819140e-02	2.7428127400e-04	57	true
0.021697639       	DILUPBiCGStab	1.7804744070e-03	1.9561205010e-05	1	true	smoothSolver	1.3614640840e-02	2.1146955120e-09	6	3.3457331760e-03	5.2086776840e-08	4	1.3126476380e-02	6.5139865620e-08	4	false	DILUPBiCGStab	2.0614820450e-02	9.0839009980e-08	3	true	DILUPBiCGStab	5.7905680110e-04	1.6929965860e-08	2	true	DICPCG	2.9133362220e-02	2.7519372260e-04	58	true
0.022089151       	DILUPBiCGStab	1.7534165550e-03	1.8945760410e-05	1	true	smoothSolver	1.3230764260e-02	2.0026059070e-09	6	2.8166747150e-03	5.2970517090e-08	4	1.2838668800e-02	5.1748608720e-08	4	false	DILUPBiCGStab	2.0107150180e-02	4.3794446740e-08	3	true	DILUPBiCGStab	5.6757082750e-04	1.6985600920e-08	2	true	DICPCG	2.9156737240e-02	2.7381279750e-04	58	true
0.022480663       	DILUPBiCGStab	1.7415012600e-03	1.8795759550e-05	1	true	smoothSolver	1.2994016230e-02	1.9701856170e-09	6	2.7173896070e-03	5.5921988120e-08	4	1.2762913960e-02	4.3121989070e-08	4	false	DILUPBiCGStab	1.9767167730e-02	3.1368033200e-08	3	true	DILUPBiCGStab	5.6102218410e-04	1.6561031870e-08	2	true	DICPCG	2.9222554130e-02	2.8675143440e-04	57	true
0.022870207       	DILUPBiCGStab	1.7190034040e-03	1.8337140720e-05	1	true	smoothSolver	1.2753815400e-02	1.8852071750e-09	6	3.3262433330e-03	5.8106626590e-08	4	1.2888658100e-02	3.6590024020e-08	4	false	DILUPBiCGStab	1.9342378510e-02	3.2012108730e-08	3	true	DILUPBiCGStab	5.5209037270e-04	1.5370562910e-08	2	true	DICPCG	2.9148188310e-02	2.8898290690e-04	55	true
0.023259751       	DILUPBiCGStab	1.7028523530e-03	1.8079576510e-05	1	true	smoothSolver	1.2600090020e-02	1.8265386890e-09	6	3.9520780300e-03	6.1039644500e-08	4	1.3159615900e-02	3.1947858960e-08	4	false	DILUPBiCGStab	1.8986782170e-02	4.0973733190e-08	3	true	DILUPBiCGStab	5.4552217420e-04	1.4253398730e-08	2	true	DICPCG	2.9066568060e-02	2.8572912800e-04	51	true
0.023649296       	DILUPBiCGStab	1.6846986910e-03	1.7766835800e-05	1	true	smoothSolver	1.2429770480e-02	1.7656626170e-09	6	4.4983351030e-03	6.3643859730e-08	4	1.3438463510e-02	2.8385747690e-08	4	false	DILUPBiCGStab	1.8583858430e-02	6.4132606330e-08	3	true	DILUPBiCGStab	5.3889716380e-04	1.3203502720e-08	2	true	DICPCG	2.8937707470e-02	2.7522296080e-04	48	true
0.02403884        	DILUPBiCGStab	1.6648408080e-03	1.7393497510e-05	1	true	smoothSolver	1.2222558460e-02	1.7202517740e-09	6	4.9501892920e-03	6.5689106320e-08	4	1.3710530420e-02	2.5432684220e-08	4	false	DILUPBiCGStab	1.8149595850e-02	9.9278474860e-08	3	true	DILUPBiCGStab	5.3233357000e-04	1.2359075220e-08	2	true	DICPCG	2.8801465620e-02	2.8352983500e-04	47	true
0.024428385       	DILUPBiCGStab	1.6436457720e-03	1.6988006600e-05	1	true	smoothSolver	1.1972404400e-02	1.6800054000e-09	6	5.3019966270e-03	6.6445731080e-08	4	1.3971622020e-02	2.5123145730e-08	4	false	DILUPBiCGStab	1.7645841150e-02	9.3895023360e-08	3	true	DILUPBiCGStab	5.2605381540e-04	1.1831573020e-08	2	true	DICPCG	2.8697947870e-02	2.7152457040e-04	49	true
0.024817929       	DILUPBiCGStab	1.6215155920e-03	1.6554854290e-05	1	true	smoothSolver	1.1681284760e-02	1.6570667460e-09	6	5.5523685850e-03	6.6230102310e-08	4	1.4212732300e-02	2.5334801920e-08	4	false	DILUPBiCGStab	1.7132542310e-02	4.8238984980e-08	3	true	DILUPBiCGStab	5.2006393790e-04	1.1537493730e-08	2	true	DICPCG	2.8676821200e-02	2.8660965960e-04	56	true
0.025207473       	DILUPBiCGStab	1.5988719760e-03	1.6110844970e-05	1	true	smoothSolver	1.1361197690e-02	1.6677955470e-09	6	5.7037633220e-03	6.6182586540e-08	4	1.4429041800e-02	2.5215277970e-08	4	false	DILUPBiCGStab	1.6616255480e-02	2.9884485640e-08	3	true	DILUPBiCGStab	5.1454805090e-04	1.1668304250e-08	2	true	DICPCG	2.8694703540e-02	2.5899057300e-04	58	true
0.025594999       	DILUPBiCGStab	1.5682982100e-03	1.5450451280e-05	1	true	smoothSolver	1.0991723810e-02	1.6894206370e-09	6	5.7356617400e-03	6.5428838950e-08	4	1.4550533560e-02	2.4541071920e-08	4	false	DILUPBiCGStab	1.6045226620e-02	4.7395671740e-08	3	true	DILUPBiCGStab	5.0715868620e-04	1.2100089280e-08	2	true	DICPCG	2.8678866610e-02	2.6859338400e-04	58	true
0.025980518       	DILUPBiCGStab	1.5384579690e-03	1.4803204100e-05	1	true	smoothSolver	1.0682136860e-02	1.7553386730e-09	6	5.6796649550e-03	6.8730231790e-08	4	1.4645017270e-02	2.4803658700e-08	4	false	DILUPBiCGStab	1.5492574990e-02	5.5520993550e-08	3	true	DILUPBiCGStab	5.0015848040e-04	1.2676366510e-08	2	true	DICPCG	2.8664650920e-02	2.6619481390e-04	58	true
0.026364038       	DILUPBiCGStab	1.5097724900e-03	1.4191410780e-05	1	true	smoothSolver	1.0448707500e-02	1.8360126690e-09	6	5.5437544090e-03	7.3016608880e-08	4	1.4717454780e-02	2.5725911350e-08	4	false	DILUPBiCGStab	1.4966839340e-02	5.8478414270e-08	3	true	DILUPBiCGStab	4.9365596500e-04	1.3246602210e-08	2	true	DICPCG	2.8660798060e-02	2.5731833610e-04	58	true
0.026743605       	DILUPBiCGStab	1.4751655960e-03	1.3434080180e-05	1	true	smoothSolver	1.0244191430e-02	1.8860810120e-09	6	5.3163866630e-03	7.6376174050e-08	4	1.4696050950e-02	2.5614600340e-08	4	false	DILUPBiCGStab	1.4392358680e-02	5.8425143540e-08	3	true	DILUPBiCGStab	4.8583578530e-04	1.3488144390e-08	2	true	DICPCG	2.8631661030e-02	2.3677499910e-04	58	true
0.027119279       	DILUPBiCGStab	1.4426248810e-03	1.2748203020e-05	1	true	smoothSolver	1.0108110090e-02	1.9599738590e-09	6	5.0310688590e-03	7.9045235470e-08	4	1.4655062380e-02	2.4976015490e-08	4	false	DILUPBiCGStab	1.3857876490e-02	5.8393143950e-08	3	true	DILUPBiCGStab	4.7889955550e-04	1.3310410800e-08	2	true	DICPCG	2.8623572900e-02	2.6218188430e-04	57	true
0.027489232       	DILUPBiCGStab	1.4053381320e-03	1.1961502090e-05	1	true	smoothSolver	9.9863528930e-03	1.9813428540e-09	6	4.6753548240e-03	7.9769123490e-08	4	1.4529848200e-02	2.3527523190e-08	4	false	DILUPBiCGStab	1.3289862990e-02	6.0365200190e-08	3	true	DILUPBiCGStab	4.7075392330e-04	1.2502506580e-08	2	true	DICPCG	2.8587676490e-02	2.7416502970e-04	56	true
0.027853607       	DILUPBiCGStab	1.3706868930e-03	1.1256263170e-05	1	true	smoothSolver	9.8954461950e-03	2.0052240870e-09	6	4.2878440540e-03	7.9695382730e-08	4	1.4392792210e-02	2.1870915350e-08	4	false	DILUPBiCGStab	1.2762449730e-02	6.6352516400e-08	3	true	DILUPBiCGStab	4.6356782920e-04	1.1547803300e-08	2	true	DICPCG	2.8567196000e-02	2.4895833570e-04	56	true
0.028212545       	DILUPBiCGStab	1.3385960670e-03	1.0628319700e-05	1	true	smoothSolver	9.8214658680e-03	2.0157203980e-09	6	3.8786886180e-03	7.8878190620e-08	4	1.4247702780e-02	2.0586731020e-08	4	false	DILUPBiCGStab	1.2263915890e-02	7.6659127880e-08	3	true	DILUPBiCGStab	4.5729268180e-04	1.0878569390e-08	2	true	DICPCG	2.8585479770e-02	2.6385517040e-04	55	true
0.028564444       	DILUPBiCGStab	1.3027251690e-03	9.9341507660e-06	1	true	smoothSolver	9.7189163530e-03	1.9566252050e-09	6	3.4458561130e-03	7.5984858960e-08	4	1.4035794400e-02	1.9473542720e-08	4	false	DILUPBiCGStab	1.1745642390e-02	8.9224608160e-08	3	true	DILUPBiCGStab	4.4956893350e-04	9.9124466040e-09	2	true	DICPCG	2.8654562800e-02	2.5866458800e-04	54	true