# Region type :   patch outlet
# Faces           : 387
# Area            : 8.2961617386e-02
# Scale factor    : 1.0000000000e+00
# Time            	sum(phi)
0.0022170817      	1.9172084979e+01
0.0092645224      	1.9162228106e+01
0.012884978       	1.9157312293e+01
0.01665343        	1.9152682105e+01
0.02034513        	1.9151736163e+01
0.023827774       	1.9171601219e+01
0.026932755       	1.9258403653e+01
0.029800094       	1.9500546562e+01
0.032644938       	2.0256963759e+01
0.035440331       	2.2795477311e+01
0.038180787       	2.9115866888e+01
0.040808217       	3.8664234616e+01
0.04332293        	4.6658769859e+01
0.045797501       	4.9431608973e+01
0.048249661       	4.8987068795e+01
0.050679937       	4.8799333957e+01
0.053068241       	4.9133772597e+01
0.055391807       	4.9402649649e+01
0.057672178       	4.9653877076e+01
0.059928923       	4.9908681411e+01
0.062169282       	5.0122627084e+01
0.064385178       	5.0265209547e+01
0.066552414       	5.0328291407e+01
0.068669953       	5.0336984413e+01
0.070748606       	5.0319897078e+01
0.072802602       	5.0288429237e+01
0.074841967       	5.0250286723e+01
0.076862847       	5.0225521095e+01
0.078865375       	5.0226433929e+01
0.080852916       	5.0234116761e+01
0.082835943       	5.0219928802e+01
0.084808823       	5.0180331452e+01
0.086769955       	5.0135749505e+01
0.088710805       	5.0110810456e+01
0.090635898       	5.0121850704e+01
0.092546939       	5.0168787340e+01
0.094441831       	5.0236841587e+01
0.096325956       	5.0311778104e+01
0.098210081       	5.0387651307e+01
0.10009234        	5.0460489548e+01
0.10193606        	5.0518926276e+01
0.10377045        	5.0542134444e+01
0.1055933         	5.0491301464e+01
0.10740469        	5.0303343763e+01
0.1091993         	4.9882201754e+01
0.11096708        	4.9092910779e+01
0.11269826        	4.7770774017e+01
0.11438189        	4.5773065264e+01
0.11599914        	4.3077116684e+01
0.11752921        	3.9844079484e+01
0.11895562        	3.6382542991e+01
0.12026773        	3.3038876618e+01
0.12146381        	3.0079696649e+01
0.12255363        	2.7634398025e+01
0.12355483        	2.5717891583e+01
0.12448666        	2.4283726690e+01
0.1253662         	2.3262200557e+01
0.12620686        	2.2578527366e+01
0.12701895        	2.2158988015e+01
0.12781052        	2.1933864473e+01
0.12858771        	2.1839852993e+01
0.12935518        	2.1822217947e+01
0.1301165         	2.1836863211e+01
0.13087418        	2.1851739101e+01
0.13163003        	2.1847123099e+01
0.1323855         	2.1814469764e+01
0.13314171        	2.1753939819e+01
0.13389981        	2.1671149721e+01
0.13466077        	2.1573959017e+01
0.13542549        	2.1469894323e+01
0.13619471        	2.1364632184e+01
0.13696887        	2.1261590169e+01
0.13774839        	2.1162372053e+01
0.13853367        	2.1067706787e+01
0.1393253         	2.0978377243e+01
0.14012391        	2.0895875026e+01
0.14093023        	2.0822613449e+01
0.14174482        	2.0761876973e+01
0.14256827        	2.0717621451e+01
0.14340113        	2.0694376192e+01
0.14424398        	2.0697133770e+01
0.14509767        	2.0731042241e+01
0.1459631         	2.0800562152e+01
0.14684109        	2.0907901448e+01
0.1477324         	2.1051090565e+01
0.14863741        	2.1222684143e+01
0.1495563         	2.1410542909e+01
0.15048912        	2.1600933336e+01
0.1514358         	2.1782352979e+01
0.15239625        	2.1947552939e+01
0.15336999        	2.2092796992e+01
0.1543563         	2.2216180887e+01
0.15535447        	2.2316910612e+01
0.15636403        	2.2395576268e+01
0.15738511        	2.2454446257e+01
0.15841775        	2.2497120688e+01
0.15946213        	2.2527901925e+01
0.16051835        	2.2551298367e+01
0.16158672        	2.2571689006e+01
0.16266771        	2.2592647703e+01
0.16376202        	2.2616022324e+01
0.16487031        	2.2641687319e+01
0.16599339        	2.2668602154e+01
0.16713227        	2.2696512900e+01
0.16828737        	2.2727247035e+01
0.16946042        	2.2765341104e+01
0.17065294        	2.2817538989e+01
0.17186568        	2.2890308283e+01
0.17309874        	2.2985156860e+01
0.17435218        	2.3094137337e+01
0.17562408        	2.3199890980e+01
0.17691089        	2.3283127949e+01
0.17820923        	2.3332706401e+01
0.17951608        	2.3349934365e+01
0.18082816        	2.3346244110e+01
0.1821443         	2.3339923369e+01
0.18346207        	2.3354984449e+01
0.18478412        	2.3421510053e+01
0.18610724        	2.3576347235e+01
0.18743582        	2.3866906240e+01
0.18876536        	2.4351754030e+01
0.19010027        	2.5106071411e+01
0.19143807        	2.6211527292e+01
0.19277587        	2.7743114938e+01
0.19411367        	2.9750667035e+01
0.19545148        	3.2230015647e+01
0.19678928        	3.5097926733e+01
0.19812708        	3.8183023317e+01
0.19946488        	4.1245350905e+01
0.20080863        	4.4037143959e+01
0.20215633        	4.6334898517e+01
0.20350362        	4.8013586059e+01
0.2048504         	4.9080071223e+01
0.20619756        	4.9644269506e+01
0.20754529        	4.9870809675e+01
0.20889382        	4.9926370436e+01
0.21024319        	4.9938424884e+01
0.21159333        	4.9977229136e+01
0.21294408        	5.0061451347e+01
0.21429483        	5.0178455307e+01
0.21564457        	5.0305890647e+01
0.21699225        	5.0424556640e+01
0.21833639        	5.0520905897e+01
0.21967523        	5.0584329138e+01
0.22100697        	5.0604882952e+01
0.22232978        	5.0573956445e+01
0.22364231        	5.0486932380e+01
0.22494365        	5.0345728153e+01
0.22623381        	5.0159682125e+01
0.22751351        	4.9944294029e+01
0.22878485        	4.9717855696e+01
0.23005032        	4.9497394309e+01
0.23131266        	4.9295407386e+01
0.23257466        	4.9118921482e+01
0.23383898        	4.8970515504e+01
0.2351073         	4.8849986066e+01
0.2363806         	4.8755432325e+01
0.23765914        	4.8683797016e+01
0.23894255        	4.8631148187e+01
0.24022995        	4.8592995855e+01
0.24152012        	4.8564649297e+01
0.24281107        	4.8541473926e+01
0.24410201        	4.8518867998e+01
0.24539176        	4.8492120883e+01
0.24667831        	4.8456441097e+01
0.24796076        	4.8407565698e+01
0.24923809        	4.8343086676e+01
0.25050998        	4.8263861662e+01
0.25177682        	4.8174769357e+01
0.25303936        	4.8084195236e+01
0.25429902        	4.8001979309e+01
0.255558          	4.7936400127e+01
0.25681744        	4.7891228068e+01
0.25807955        	4.7863497285e+01
0.25934606        	4.7842824561e+01
0.26061782        	4.7811712403e+01
0.26189577        	4.7746130102e+01
0.26317964        	4.7615909434e+01
0.26446936        	4.7384606678e+01
0.26576424        	4.7009678936e+01
0.26706367        	4.6443384645e+01
0.26836707        	4.5635617200e+01
0.26967438        	4.4539143831e+01
0.27098536        	4.3118586751e+01
0.27229962        	4.1361240362e+01
0.27361731        	3.9286233143e+01
0.27493847        	3.6951855984e+01
0.27626329        	3.4455419579e+01
0.27759201        	3.1925873380e+01
0.27892468        	2.9508597041e+01
0.28026117        	2.7343634718e+01
0.28160129        	2.5541176663e+01
0.28294427        	2.4161269695e+01
0.2842918         	2.3200811095e+01
0.28564015        	2.2603497533e+01
0.28698986        	2.2272277968e+01
0.28834509        	2.2101100475e+01
0.28970031        	2.2001306492e+01
0.29105553        	2.1914228724e+01
0.29241075        	2.1814379660e+01
0.29377082        	2.1700827092e+01
0.29513987        	2.1586215645e+01
0.29650892        	2.1488390105e+01
0.29787797        	2.1422725902e+01
0.29924702        	2.1400896923e+01
0.30063099        	2.1431159046e+01
0.30204293        	2.1519222601e+01
0.30346905        	2.1663452586e+01
0.30490943        	2.1854423226e+01
0.30636278        	2.2074840479e+01
0.30782663        	2.2302267042e+01
0.30929689        	2.2514093316e+01
0.31076935        	2.2693131834e+01
0.31223985        	2.2830930385e+01
0.3137055         	2.2927987397e+01
0.31516501        	2.2991252840e+01
0.31661833        	2.3030757667e+01
0.31806642        	2.3056800277e+01
0.31951107        	2.3078149425e+01
0.32095481        	2.3101274712e+01
0.32239903        	2.3130432553e+01
0.32384635        	2.3168284560e+01
0.32529885        	2.3216375434e+01
0.32675824        	2.3275463291e+01
0.32822546        	2.3345118948e+01
0.32970043        	2.3422631710e+01
0.33118169        	2.3502422549e+01
0.33266693        	2.3577267324e+01
0.33415282        	2.3641427147e+01
0.33563585        	2.3694714822e+01
0.33711308        	2.3746008383e+01
0.33858255        	2.3814895273e+01
0.34004353        	2.3931215457e+01
0.34149576        	2.4133390190e+01
0.34293992        	2.4466835267e+01
0.344377          	2.4982235420e+01
0.34580798        	2.5732741930e+01
0.34723378        	2.6768930235e+01
0.34865469        	2.8129938097e+01
0.35007129        	2.9832723212e+01
0.35148368        	3.1859123861e+01
0.35289197        	3.4147648767e+01
0.35429617        	3.6592920665e+01
0.35569628        	3.9056757019e+01
0.35709254        	4.1390266754e+01
0.35848472        	4.3460042250e+01
0.35987375        	4.5174885665e+01
0.36125944        	4.6496574183e+01
0.36264265        	4.7442460446e+01
0.3640237         	4.8071260146e+01
0.36540261        	4.8464220729e+01
0.36678085        	4.8705150255e+01
0.36815639        	4.8863727559e+01
0.36953085        	4.8987929605e+01
0.37090301        	4.9101924240e+01
0.37227195        	4.9210917062e+01
0.37363665        	4.9308269046e+01
0.37499659        	4.9382626392e+01
0.3763499         	4.9423076153e+01
0.37769552        	4.9422289286e+01
0.37903244        	4.9377687649e+01
0.38036046        	4.9291535649e+01
0.38167933        	4.9170410791e+01
0.38298974        	4.9024059399e+01
0.38429163        	4.8864104211e+01
0.3855876         	4.8701993855e+01
0.38688019        	4.8547839925e+01
0.38816732        	4.8409834259e+01
0.38945348        	4.8292414398e+01
0.39073964        	4.8197414189e+01
0.39203063        	4.8123902833e+01
0.39332647        	4.8069447065e+01
0.3946223         	4.8030558519e+01
0.39591813        	4.8003016698e+01
0.39721396        	4.7982632927e+01
0.39850979        	4.7965479677e+01
0.39980563        	4.7948028334e+01
0.40110868        	4.7927111847e+01
0.40241151        	4.7900356738e+01
0.40371181        	4.7866202667e+01
0.4050091         	4.7824239029e+01
0.40630302        	4.7775402592e+01
0.40759365        	4.7721829670e+01
0.4088815         	4.7666390133e+01
0.41016721        	4.7611915115e+01
0.41145186        	4.7560071442e+01
0.4127368         	4.7510016162e+01
0.41402321        	4.7457036362e+01
0.41531232        	4.7391363031e+01
0.41660517        	4.7297423734e+01
0.41790246        	4.7153722238e+01
0.41920468        	4.6933303298e+01
0.42051206        	4.6604848773e+01
0.42182446        	4.6134489564e+01
0.42314173        	4.5488181915e+01
0.42446358        	4.4635110651e+01
0.42578967        	4.3552034863e+01
0.42711985        	4.2227792583e+01
0.42845381        	4.0668209820e+01
0.42979157        	3.8898871902e+01
0.43113298        	3.6966963425e+01
0.43247811        	3.4938895086e+01
0.43382701        	3.2895551508e+01
0.43517936        	3.0924521143e+01
0.43653531        	2.9108674340e+01
0.43789453        	2.7516601544e+01
0.43925695        	2.6192044961e+01
0.44062213        	2.5148993530e+01
0.44198966        	2.4371192975e+01
0.44335969        	2.3818213203e+01
0.44473189        	2.3436508717e+01
0.44610621        	2.3170864428e+01
0.44748353        	2.2974450401e+01
0.44886392        	2.2815092132e+01
0.45024834        	2.2676361572e+01
0.45163798        	2.2555234652e+01
0.45303414        	2.2457531286e+01
0.45443804        	2.2392963129e+01
0.4558511         	2.2370913213e+01
0.4572744         	2.2397449864e+01
0.45870858        	2.2473534119e+01
0.46015405        	2.2594440720e+01
0.46160994        	2.2750106645e+01
0.46307498        	2.2926675967e+01
0.46454702        	2.3108795748e+01
0.46602348        	2.3282308703e+01
0.46750072        	2.3436387843e+01
0.46897796        	2.3565136445e+01
0.4704522         	2.3667089435e+01
0.4719233         	2.3744666948e+01
0.47339074        	2.3802414263e+01
0.47485682        	2.3845746302e+01
0.47631944        	2.3879748908e+01
0.47778286        	2.3908906321e+01
0.47924934        	2.3936625688e+01
0.48071877        	2.3965187019e+01
0.48219269        	2.3995849414e+01
0.4836718         	2.4028912576e+01
0.48515618        	2.4063952871e+01
0.486647          	2.4100334887e+01
0.48813896        	2.4137898414e+01
0.48963091        	2.4178518461e+01
0.49112287        	2.4227727660e+01
0.49261482        	2.4296602728e+01
0.49409923        	2.4402758784e+01
0.49557442        	2.4571206394e+01
0.49704962        	2.4835454757e+01
0.49852481        	2.5234322594e+01
0.5               	2.5809485909e+01
0.50145058        	2.6585781896e+01
0.50289557        	2.7598597227e+01
0.50433548        	2.8864146796e+01
0.50577074        	3.0379971611e+01
0.5072017         	3.2120076834e+01
0.50862853        	3.4033289459e+01
0.51005137        	3.6046274868e+01
0.51147033        	3.8070940588e+01
0.51288572        	4.0015663050e+01
0.51429762        	4.1797485289e+01
0.51570632        	4.3354331456e+01
0.51711214        	4.4652039471e+01
0.51851535        	4.5685999932e+01
0.51991615        	4.6477446949e+01
0.52131474        	4.7065486484e+01
0.52271123        	4.7496954946e+01
0.52410544        	4.7817032438e+01
0.52549697        	4.8062621492e+01
0.52688539        	4.8258983838e+01
0.52826986        	4.8419305938e+01
0.5296496         	4.8546905449e+01
0.53102375        	4.8639041261e+01
0.53239129        	4.8691006083e+01
0.53375181        	4.8699243592e+01
0.53510469        	4.8663195918e+01
0.53644986        	4.8585971644e+01
0.53778773        	4.8473949473e+01
0.5391186         	4.8335874287e+01
0.54044353        	4.8181572865e+01
0.54176362        	4.8020825771e+01
0.54308028        	4.7862364105e+01
0.5443949         	4.7713254465e+01
0.54570827        	4.7578583974e+01
0.54702253        	4.7461143067e+01
0.54833761        	4.7361844597e+01
0.54965436        	4.7279720261e+01
0.55097292        	4.7212555031e+01
0.55229281        	4.7157440905e+01
0.55361434        	4.7111276706e+01
0.55493587        	4.7071301234e+01
0.5562574         	4.7035239518e+01
0.55757752        	4.7001567387e+01
0.5588961         	4.6969488680e+01
0.56021256        	4.6938886478e+01
0.56152675        	4.6910068278e+01
0.56283869        	4.6883375540e+01
0.56414878        	4.6858645275e+01
0.56545722        	4.6834648629e+01
0.56676566        	4.6808454813e+01
0.5680741         	4.6774785853e+01
0.56938323        	4.6725298097e+01
0.57069459        	4.6648035603e+01
0.57200904        	4.6527173551e+01
0.57332707        	4.6343102372e+01
0.57464903        	4.6072976418e+01
0.57597513        	4.5691920968e+01
0.57730562        	4.5174746734e+01
0.578641          	4.4498102621e+01
0.57998035        	4.3644147196e+01
0.58132395        	4.2602129073e+01
0.58267195        	4.1371630258e+01
0.5840237         	3.9965515378e+01
0.58537793        	3.8411154422e+01
0.58673813        	3.6743316059e+01
0.58809947        	3.5017484132e+01
0.58946735        	3.3283612377e+01
0.59083522        	3.1608241243e+01
0.59220709        	3.0040776965e+01
0.59358637        	2.8622865889e+01
0.59496564        	2.7392815781e+01
0.59634492        	2.6362862665e+01
0.59772419        	2.5528315253e+01
0.59910347        	2.4870506064e+01
0.60048679        	2.4360511896e+01
0.60187961        	2.3966978687e+01
0.6032757         	2.3663672666e+01
0.60467564        	2.3427502375e+01
0.60608027        	2.3243241758e+01
0.60749039        	2.3103430170e+01
0.60890704        	2.3006575082e+01
0.61033117        	2.2954566199e+01
0.61176361        	2.2949850896e+01
0.61320494        	2.2993042815e+01
0.61465518        	2.3081422330e+01
0.61611421        	2.3208457819e+01
0.61758103        	2.3364294426e+01
0.6190544         	2.3537122809e+01
0.62053253        	2.3714747447e+01
0.62201341        	2.3886293794e+01
0.62349598        	2.4043613956e+01
0.62497775        	2.4181632857e+01
0.6264582         	2.4298679048e+01
0.62793686        	2.4395596580e+01
0.62941372        	2.4474895589e+01
0.63088903        	2.4539915472e+01
0.63236418        	2.4594062593e+01
0.63384031        	2.4640188193e+01
0.63531817        	2.4680314657e+01
0.63679882        	2.4715591696e+01
0.63828269        	2.4746443336e+01
0.63976996        	2.4772960817e+01
0.64126008        	2.4795640854e+01
0.64275246        	2.4816454974e+01
0.64424523        	2.4840023401e+01
0.64573769        	2.4874738583e+01
0.64722768        	2.4933473528e+01
0.6487142         	2.5033958447e+01
0.65019611        	2.5198455775e+01
0.65167252        	2.5452801288e+01
0.6531432         	2.5824854068e+01
0.65460768        	2.6342017926e+01
0.65606663        	2.7028903570e+01
0.65751978        	2.7903106844e+01
0.65896786        	2.8972638127e+01
0.66041124        	3.0232299990e+01
0.66184976        	3.1661161056e+01
0.66328409        	3.3223457967e+01
0.66471423        	3.4869219888e+01
0.66614076        	3.6539852216e+01
0.66756339        	3.8172667254e+01
0.66898245        	3.9709507668e+01
0.67039828        	4.1102505921e+01
0.67181125        	4.2318773474e+01
0.67322085        	4.3341932744e+01
0.67462783        	4.4173196638e+01
0.67603308        	4.4827117716e+01
0.67743466        	4.5326072142e+01
0.67883378        	4.5697773156e+01
0.68023064        	4.5968674845e+01
0.68162285        	4.6160910273e+01
0.68301155        	4.6291420433e+01
0.68439599        	4.6370834560e+01
0.68577525        	4.6404930257e+01
0.6871489         	4.6396424537e+01
0.68851604        	4.6346858493e+01
0.68987618        	4.6258223125e+01
0.69123068        	4.6133744552e+01
0.6925798         	4.5978445587e+01
0.69392166        	4.5799261306e+01
0.69525756        	4.5603751188e+01
0.69659346        	4.5398977047e+01
0.69792936        	4.5192470369e+01
0.69926526        	4.4990849707e+01
0.70059682        	4.4799947129e+01
0.70192263        	4.4623434404e+01
0.7032489         	4.4462412503e+01
0.70457553        	4.4317521868e+01
0.70590299        	4.4188259180e+01
0.70723111        	4.4073441426e+01
0.70856018        	4.3971416262e+01
0.70988924        	4.3880495795e+01
0.71121816        	4.3799039254e+01
0.71254624        	4.3725668217e+01
0.71387315        	4.3659231355e+01
0.71519879        	4.3598785699e+01
0.71652308        	4.3543437785e+01
0.7178458         	4.3492043141e+01
0.71916751        	4.3442769857e+01
0.7204883         	4.3392635834e+01
0.72180909        	4.3336924973e+01
0.72313034        	4.3268787213e+01
0.72445277        	4.3178914804e+01
0.72577707        	4.3055459411e+01
0.72710385        	4.2884078450e+01
0.72843366        	4.2648320586e+01
0.72976681        	4.2330433727e+01
0.73110377        	4.1912455595e+01
0.73244463        	4.1377821624e+01
0.73378944        	4.0712989567e+01
0.73513821        	3.9909181485e+01
0.73649092        	3.8964079844e+01
0.73784746        	3.7883209514e+01
0.73920771        	3.6680685612e+01
0.74057169        	3.5378993148e+01
0.74193921        	3.4008490766e+01
0.74331012        	3.2605244762e+01
0.74468444        	3.1208238857e+01
0.74606192        	2.9856620735e+01
0.74744248        	2.8586006737e+01
0.74882631        	2.7425414242e+01
0.75021287        	2.6395741327e+01
0.75160242        	2.5507272501e+01
0.75299447        	2.4760970507e+01
0.75438962        	2.4148824970e+01
0.75578765        	2.3657298536e+01
0.75718891        	2.3269580008e+01
0.75859384        	2.2968665861e+01
0.76000307        	2.2739668542e+01
0.76141717        	2.2571221895e+01
0.76283661        	2.2455777628e+01
0.76426245        	2.2388941949e+01
0.76569487        	2.2368358118e+01
0.7671345         	2.2392183302e+01
0.76858158        	2.2457818918e+01
0.77003586        	2.2560975417e+01
0.77149651        	2.2695313542e+01
0.77296354        	2.2852864745e+01
0.77443537        	2.3024523750e+01
0.7759106         	2.3201207726e+01
0.77738848        	2.3374879763e+01
0.77886636        	2.3538996868e+01
0.78034423        	2.3689406008e+01
0.78182211        	2.3823993212e+01
0.78329999        	2.3942339853e+01
0.78477786        	2.4045237910e+01
0.78625574        	2.4134214648e+01
0.78773362        	2.4211107273e+01
0.7892115         	2.4277763354e+01
0.79068937        	2.4335861889e+01
0.79216725        	2.4386918173e+01
0.79364513        	2.4432546041e+01
0.79512301        	2.4474938078e+01
0.79660088        	2.4517462343e+01
0.79807876        	2.4565253249e+01
0.79955664        	2.4625815297e+01
0.80103951        	2.4709885447e+01
0.80252228        	2.4831019026e+01
0.80400179        	2.5005714999e+01
0.80547714        	2.5252853177e+01
0.80694784        	2.5592444378e+01
0.80841345        	2.6043962224e+01
0.80987403        	2.6624637542e+01
0.81132948        	2.7347272748e+01
0.81277988        	2.8218207118e+01
0.81422564        	2.9235542123e+01
0.8156668         	3.0387399542e+01
0.81710371        	3.1652184571e+01
0.81853647        	3.2999030737e+01
0.81996539        	3.4390499316e+01
0.82139069        	3.5785395942e+01
0.82281238        	3.7142399012e+01
0.82423094        	3.8424448040e+01
0.82564618        	3.9600938636e+01
0.82705853        	4.0650882280e+01
0.82846802        	4.1562979286e+01
0.82987474        	4.2335629805e+01
0.83127871        	4.2975181444e+01
0.83267981        	4.3493498638e+01
0.83407787        	4.3905428588e+01
0.83547266        	4.4226424978e+01
0.83686363        	4.4470610128e+01
0.83825061        	4.4649797877e+01
0.8396331         	4.4772960693e+01
0.84101069        	4.4846625862e+01
0.84238307        	4.4875576358e+01
0.84375           	4.4863745954e+01
0.84511164        	4.4815013449e+01
0.84646789        	4.4733800487e+01
0.84781918        	4.4625268291e+01
0.84916594        	4.4495267679e+01
0.8505087         	4.4350064450e+01
0.85184819        	4.4195904389e+01
0.85318498        	4.4038651819e+01
0.85451997        	4.3883432664e+01
0.85585369        	4.3734474360e+01
0.85718742        	4.3594851961e+01
0.85852115        	4.3466677126e+01
0.85985487        	4.3351024537e+01
0.8611886         	4.3248093927e+01
0.86252232        	4.3157416609e+01
0.86385605        	4.3078084144e+01
0.86518977        	4.3008960311e+01
0.8665235         	4.2948830239e+01
0.86785547        	4.2896517388e+01
0.86918651        	4.2850654731e+01
0.87051755        	4.2809671285e+01
0.87184858        	4.2771612734e+01
0.87317648        	4.2733915764e+01
0.87450438        	4.2692829080e+01
0.87583227        	4.2643368711e+01
0.87716017        	4.2578988605e+01
0.87849101        	4.2491224707e+01
0.87982284        	4.2370118987e+01
0.8811556         	4.2204074294e+01
0.88249208        	4.1979808575e+01
0.88383045        	4.1684037374e+01
0.88517232        	4.1303075889e+01
0.88651769        	4.0824718164e+01
0.88786592        	4.0239486621e+01
0.88921851        	3.9540447727e+01
0.89057468        	3.8726343154e+01
0.89193084        	3.7803605326e+01
0.89329702        	3.6775004630e+01
0.89466498        	3.5662162984e+01
0.89603293        	3.4488251063e+01
0.89740089        	3.3279150225e+01
0.89876884        	3.2062969085e+01
0.90013812        	3.0866978232e+01
0.90152097        	2.9708290055e+01
0.90290679        	2.8620687880e+01
0.90429548        	2.7623930131e+01
0.90568704        	2.6731737185e+01
0.90708144        	2.5951419840e+01
0.90847877        	2.5284061325e+01
0.90987915        	2.4725635140e+01
0.91128275        	2.4268364869e+01
0.91268985        	2.3902344657e+01
0.91410088        	2.3617131305e+01
0.91551621        	2.3403004103e+01
0.91693642        	2.3251658190e+01
0.91836193        	2.3156523322e+01
0.91979313        	2.3112499257e+01
0.92123036        	2.3115322555e+01
0.92267371        	2.3160851967e+01
0.92412308        	2.3244436220e+01
0.92557814        	2.3360526653e+01
0.92703834        	2.3502597785e+01
0.92850315        	2.3663338916e+01
0.9299715         	2.3835099326e+01
0.93144254        	2.4010611277e+01
0.93291539        	2.4183459209e+01
0.93438978        	2.4348544500e+01
0.93586417        	2.4502093405e+01
0.93733855        	2.4641961112e+01
0.93881294        	2.4767279497e+01
0.94028733        	2.4878176638e+01
0.94176172        	2.4975476938e+01
0.94323677        	2.5060491410e+01
0.94471305        	2.5134814467e+01
0.94618994        	2.5200231618e+01
0.94766824        	2.5258949887e+01
0.94914739        	2.5313802055e+01
0.95062782        	2.5368777089e+01
0.95210824        	2.5429333686e+01
0.95358867        	2.5502839091e+01
0.95506696        	2.5598634775e+01
0.95654367        	2.5728355566e+01
0.95801787        	2.5905481256e+01
0.95948898        	2.6144867428e+01
0.96095581        	2.6461697470e+01
0.9624188         	2.6870824429e+01
0.96387711        	2.7384832913e+01
0.9653313         	2.8013392633e+01
0.96678064        	2.8760896856e+01
0.96822587        	2.9626569437e+01
0.96966652        	3.0602177734e+01
0.97110307        	3.1673116908e+01
0.9725357         	3.2818227555e+01
0.9739646         	3.4011221420e+01
0.97538998        	3.5222556412e+01
0.97681231        	3.6421926713e+01
0.97823052        	3.7579145437e+01
0.97964589        	3.8669507065e+01
0.98105937        	3.9673021644e+01
0.98246808        	4.0573424672e+01
0.98387627        	4.1365451483e+01
0.98527918        	4.2044755439e+01
0.98668116        	4.2616720236e+01
0.98807927        	4.3087066714e+01
0.98947351        	4.3465099935e+01
0.99086775        	4.3761633946e+01
0.99225375        	4.3984821287e+01
0.99363701        	4.4144564151e+01
0.99502027        	4.4248437976e+01
0.99640353        	4.4302384381e+01
0.99778679        	4.4311531762e+01
0.99917004        	4.4280579465e+01
1.0005439         	4.4214775353e+01
1.0019008         	4.4120240042e+01
1.0032536         	4.4001800695e+01
1.0046028         	4.3864967232e+01
1.0059488         	4.3715292464e+01
1.0072922         	4.3558153676e+01
1.0086335         	4.3398513568e+01
1.0099732         	4.3240737852e+01
1.0113117         	4.3088442906e+01
1.0126494         	4.2944429874e+01
1.0139871         	4.2810578505e+01
1.0153242         	4.2688090279e+01
1.0166608         	4.2577412402e+01
1.0179975         	4.2478438779e+01
1.0193341         	4.2390640153e+01
1.0206707         	4.2313128579e+01
1.0220072         	4.2244735867e+01
1.0233427         	4.2183958998e+01
1.0246782         	4.2128826228e+01
1.026013          	4.2077025927e+01
1.0273473         	4.2025563333e+01
1.0286816         	4.1970517403e+01
1.0300159         	4.1906880643e+01
1.0313511         	4.1828417679e+01
1.032687          	4.1727728573e+01
1.0340242         	4.1596146895e+01
1.0353631         	4.1423975688e+01
1.0367041         	4.1200761711e+01
1.0380474         	4.0915789229e+01
1.0393935         	4.0558721430e+01
1.0407426         	4.0120324031e+01
1.0420947         	3.9593352867e+01
1.0434502         	3.8973209087e+01
1.0448089         	3.8258861648e+01
1.046171          	3.7453202890e+01
1.0475364         	3.6563538792e+01
1.0489052         	3.5601307335e+01
1.0502773         	3.4582265111e+01
1.0516523         	3.3525445375e+01
1.0530307         	3.2451848136e+01
1.0544119         	3.1383826745e+01
1.0557963         	3.0342976798e+01
1.0571835         	2.9349630135e+01
1.0585735         	2.8420772122e+01
1.0599666         	2.7569794552e+01
1.0613624         	2.6806192589e+01
1.062761          	2.6134842530e+01
1.0641626         	2.5556807803e+01
1.0655673         	2.5069745959e+01
1.0669755         	2.4668920902e+01
1.0683876         	2.4348104295e+01
1.0698035         	2.4100594007e+01
1.0712235         	2.3919618459e+01
1.0726483         	2.3798856935e+01
1.0740781         	2.3732627808e+01
1.0755129         	2.3715746760e+01
1.0769527         	2.3743218212e+01
1.0783979         	2.3809968914e+01
1.0798477         	2.3910508460e+01
1.0813028         	2.4038947027e+01
1.0827619         	2.4188819395e+01
1.0842227         	2.4353283882e+01
1.0856888         	2.4526281445e+01
1.0871566         	2.4701435091e+01
1.0886244         	2.4873349346e+01
1.0900923         	2.5037874734e+01
1.0915601         	2.5191996713e+01
1.0930279         	2.5333807227e+01
1.0944957         	2.5462384733e+01
1.0959635         	2.5577643631e+01
1.0974313         	2.5680199968e+01
1.0988991         	2.5771276005e+01
1.1003682         	2.5852712322e+01
1.1018413         	2.5927005544e+01
1.1033152         	2.5997112878e+01
1.104789          	2.6067149541e+01
1.1062629         	2.6142513081e+01
1.1077364         	2.6230026169e+01
1.1092087         	2.6338010432e+01
1.1106795         	2.6476300986e+01
1.112148          	2.6655947412e+01
1.1136137         	2.6888822881e+01
1.1150763         	2.7186964678e+01
1.1165354         	2.7561719842e+01
1.1179908         	2.8022856021e+01
1.1194421         	2.8577535359e+01
1.1208895         	2.9229466046e+01
1.1223329         	2.9978048059e+01
1.1237723         	3.0817809381e+01
1.1252078         	3.1738437802e+01
1.1266396         	3.2724859521e+01
1.1280679         	3.3758209460e+01
1.1294926         	3.4816408121e+01
1.1309141         	3.5876599755e+01
1.1323324         	3.6915893689e+01
1.1337475         	3.7913055136e+01
1.1351598         	3.8849941536e+01
1.1365691         	3.9712171539e+01
1.1379757         	4.0489807523e+01
1.1393796         	4.1177182185e+01
1.1407805         	4.1772504794e+01
1.1421785         	4.2277529191e+01
1.1435735         	4.2696469172e+01
1.1449653         	4.3035145580e+01
1.1463536         	4.3300298479e+01
1.1477384         	4.3498879162e+01
1.1491195         	4.3637639666e+01
1.1504967         	4.3722877519e+01
1.1518699         	4.3760427096e+01
1.153239          	4.3755726755e+01
1.1546042         	4.3713977819e+01
1.1559655         	4.3640300061e+01
1.1573233         	4.3539815437e+01
1.1586774         	4.3417752783e+01
1.1600288         	4.3279233698e+01
1.1613776         	4.3129310758e+01
1.1627241         	4.2972753970e+01
1.1640692         	4.2813885672e+01
1.1654124         	4.2656633659e+01
1.1667556         	4.2504027944e+01
1.1680966         	4.2358867898e+01
1.1694371         	4.2222827045e+01