# Region type :   patch outlet
# Faces           : 398
# Area            : 8.2960538044e-02
# Scale factor    : 1.0000000000e+00
# Time            	sum(phi)
0.0022358089      	1.9170677834e+01
0.012082188       	1.9157320906e+01
0.014746086       	1.9153709522e+01
0.016692635       	1.9150976784e+01
0.018747826       	1.9147750497e+01
0.021054233       	1.9143053994e+01
0.023353692       	1.9137524731e+01
0.025634213       	1.9141582645e+01
0.027942428       	1.9210211930e+01
0.030376467       	1.9570249205e+01
0.033407289       	2.1525305529e+01
0.038590147       	3.5912878142e+01
0.044344487       	5.5898748329e+01
0.050114102       	5.6582412198e+01
0.054238893       	5.6034016879e+01
0.057535219       	5.5717229747e+01
0.060569799       	5.5684202267e+01
0.063381043       	5.7125838987e+01
0.066125682       	5.9979862563e+01
0.068980163       	6.2558353049e+01
0.071931618       	6.3183985933e+01
0.075045893       	6.2901236708e+01
0.078503497       	6.3305050826e+01
0.082431885       	6.3038387462e+01
0.0869164         	6.0868779947e+01
0.091145429       	5.9082886406e+01
0.094631496       	5.8471928165e+01
0.097564602       	5.8373565408e+01
0.1002656         	5.8450413255e+01
0.10297949        	5.8765847596e+01
0.10600535        	5.9254811129e+01
0.10961625        	5.8942575827e+01
0.11320654        	5.6582598913e+01
0.11615337        	5.2492126203e+01
0.11881395        	4.6984260748e+01
0.121523          	4.0384918451e+01
0.12449685        	3.3677717723e+01
0.12765088        	2.8525735905e+01
0.13066107        	2.5465677446e+01
0.13343826        	2.3901265544e+01
0.13614965        	2.3245187925e+01
0.13903638        	2.3245655235e+01
0.14236144        	2.3541081643e+01
0.14609656        	2.2890821707e+01
0.149685          	2.1243372828e+01
0.15292848        	1.9833999670e+01
0.15602748        	1.8883597954e+01
0.15914454        	1.8233636879e+01
0.16228155        	1.8153388535e+01
0.16535775        	1.8907085311e+01
0.16837532        	2.0132127581e+01
0.17148794        	2.1177410156e+01
0.17493985        	2.1690758359e+01
0.17883285        	2.1846283809e+01
0.18260823        	2.2073538751e+01
0.18586942        	2.2465519472e+01
0.18882097        	2.3157864490e+01
0.19173429        	2.4587150114e+01
0.19474646        	2.7417814064e+01
0.19783678        	3.2075659037e+01
0.20091509        	3.8172105185e+01
0.20394401        	4.4616372187e+01
0.20701087        	5.0311445625e+01
0.21018521        	5.4419259085e+01
0.21340889        	5.6642548774e+01
0.21653156        	5.7374275150e+01
0.21947405        	5.7373090284e+01
0.22227467        	5.7293565095e+01
0.22501304        	5.7526221582e+01
0.2277565         	5.8217770824e+01
0.23053431        	5.9303807290e+01
0.23334261        	6.0572394424e+01
0.23617753        	6.1765516699e+01
0.23906052        	6.2627909836e+01
0.24203031        	6.2905447597e+01
0.24509049        	6.2568743502e+01
0.24815198        	6.1960243772e+01
0.25108625        	6.1454393382e+01
0.25384821        	6.1105808558e+01
0.25648678        	6.0785021906e+01
0.25908858        	6.0407193833e+01
0.26173943        	5.9931362457e+01
0.26449889        	5.9291999561e+01
0.26737879        	5.8337968412e+01
0.2703447         	5.6746364104e+01
0.27335765        	5.4115748372e+01
0.27640756        	5.0220850498e+01
0.2794861         	4.5264472869e+01
0.28255035        	3.9919512941e+01
0.28556246        	3.4965455095e+01
0.28852388        	3.0971608181e+01
0.29147834        	2.8165546489e+01
0.29449273        	2.6503224029e+01
0.297601          	2.5770839090e+01
0.30081567        	2.5547189718e+01
0.30413486        	2.5292960654e+01
0.30751512        	2.4568890619e+01
0.31091179        	2.3265237555e+01
0.31426761        	2.1672924300e+01
0.31753664        	2.0271379387e+01
0.32071285        	1.9404415265e+01
0.32383799        	1.9104840421e+01
0.32698508        	1.9199210358e+01
0.33023644        	1.9516553495e+01
0.3336418         	2.0010409912e+01
0.33717141        	2.0728743517e+01
0.3407035         	2.1686147869e+01
0.34409967        	2.2899139668e+01
0.34732256        	2.4546935976e+01
0.35041875        	2.6883504403e+01
0.35345706        	3.0084253419e+01
0.35648682        	3.4226526032e+01
0.35953748        	3.9103068196e+01
0.36261721        	4.4083616785e+01
0.36572691        	4.8433701199e+01
0.36884264        	5.1656593828e+01
0.37194225        	5.3659626815e+01
0.37498591        	5.4666484465e+01
0.37795714        	5.5091922344e+01
0.38086102        	5.5380524739e+01
0.38371331        	5.5895885269e+01
0.38653615        	5.6818504033e+01
0.38934112        	5.8087984471e+01
0.3921729         	5.9508770374e+01
0.39503736        	6.0856823805e+01
0.39795656        	6.1970754817e+01
0.40088757        	6.2742303946e+01
0.40383856        	6.3161969894e+01
0.40674574        	6.3261046324e+01
0.40958301        	6.3061802267e+01
0.41235061        	6.2578542707e+01
0.41507103        	6.1857531948e+01
0.41777862        	6.0912075238e+01
0.42051442        	5.9700084769e+01
0.42331359        	5.8161175687e+01
0.42619426        	5.6172454090e+01
0.42914998        	5.3556919475e+01
0.43215622        	5.0227514312e+01
0.43518643        	4.6298743800e+01
0.43821892        	4.2097306702e+01
0.44123987        	3.8047362266e+01
0.44424773        	3.4525815549e+01
0.44725324        	3.1763441115e+01
0.45027588        	2.9828365246e+01
0.45334359        	2.8626505218e+01
0.45647798        	2.7890202761e+01
0.45968741        	2.7225295251e+01
0.46295891        	2.6275137223e+01
0.4662606         	2.4909874830e+01
0.46954628        	2.3276606468e+01
0.47279297        	2.1649892235e+01
0.47599486        	2.0280362320e+01
0.47917435        	1.9315356268e+01
0.48236075        	1.8817278346e+01
0.48559839        	1.8809015121e+01
0.48891891        	1.9306637362e+01
0.49231879        	2.0317909603e+01
0.49573266        	2.1784064160e+01
0.49914653        	2.3644490858e+01
0.50240939        	2.5893935156e+01
0.50554964        	2.8590173840e+01
0.50864344        	3.1826346232e+01
0.51171781        	3.5630681468e+01
0.51478368        	3.9717314971e+01
0.51784901        	4.3640609325e+01
0.5209184         	4.7043555519e+01
0.52398953        	4.9691046225e+01
0.52705188        	5.1505276219e+01
0.53008452        	5.2625937890e+01
0.53307048        	5.3349042912e+01
0.53600666        	5.4006768670e+01
0.53889844        	5.4836591784e+01
0.54176085        	5.5897798826e+01
0.54461078        	5.7112209854e+01
0.54746894        	5.8361149069e+01
0.55034597        	5.9514348047e+01
0.55324142        	6.0433702668e+01
0.55614568        	6.1000397201e+01
0.55903633        	6.1133054787e+01
0.56189754        	6.0789871907e+01
0.56471896        	5.9968668651e+01
0.56750374        	5.8717054693e+01
0.57026938        	5.7107392841e+01
0.57304049        	5.5199680716e+01
0.57584453        	5.3025454414e+01
0.57869931        	5.0582868162e+01
0.58160659        	4.7848299979e+01
0.58456244        	4.4809279292e+01
0.58755519        	4.1527701980e+01
0.59057993        	3.8156753641e+01
0.59361866        	3.4921735304e+01
0.59665739        	3.2033490159e+01
0.59969613        	2.9632254577e+01
0.60274513        	2.7772137294e+01
0.60581766        	2.6399660418e+01
0.60893092        	2.5351115187e+01
0.61209562        	2.4404851823e+01
0.61530999        	2.3356551527e+01
0.61855933        	2.2120295300e+01
0.62181826        	2.0741881631e+01
0.62506929        	1.9346989110e+01
0.62830279        	1.8103582995e+01
0.63152513        	1.7167763152e+01
0.63475101        	1.6659537316e+01
0.63800446        	1.6661287933e+01
0.64130253        	1.7226322057e+01
0.64463213        	1.8345571654e+01
0.64795276        	1.9921486960e+01
0.65122876        	2.1867300867e+01
0.65444748        	2.4117145567e+01
0.65761199        	2.6654957553e+01
0.66073347        	2.9482950499e+01
0.66382133        	3.2489249270e+01
0.66688514        	3.5490918588e+01
0.66993721        	3.8325518231e+01
0.67298757        	4.0858114355e+01
0.67602267        	4.2982298598e+01
0.6790567         	4.4694677869e+01
0.68206888        	4.6071340466e+01
0.68505035        	4.7264726744e+01
0.68799752        	4.8422785534e+01
0.69091621        	4.9631308588e+01
0.69379996        	5.0907635394e+01
0.6966837         	5.2244011192e+01
0.69956744        	5.3573245775e+01
0.70244253        	5.4777384251e+01
0.70531566        	5.5728979394e+01
0.70818333        	5.6308674111e+01
0.71104093        	5.6415792481e+01
0.71388321        	5.5992926967e+01
0.71670919        	5.5049199884e+01
0.71952446        	5.3641568602e+01
0.72234055        	5.1849928366e+01
0.72517135        	4.9761532761e+01
0.72802652        	4.7446192292e+01
0.73091381        	4.4949454289e+01
0.73383778        	4.2311880224e+01
0.73680037        	3.9590043303e+01
0.73979912        	3.6868486708e+01
0.7428268         	3.4248827550e+01
0.7458733         	3.1830332005e+01
0.74893222        	2.9692185397e+01
0.75200081        	2.7877620934e+01
0.7550823         	2.6373318150e+01
0.75818524        	2.5105304036e+01
0.76131909        	2.3969628453e+01
0.76449015        	2.2861345921e+01
0.76769544        	2.1712620244e+01
0.77092443        	2.0514553335e+01
0.7741731         	1.9307432837e+01
0.77742177        	1.8195398393e+01
0.78067043        	1.7306147785e+01
0.7839191         	1.6765209348e+01
0.78716777        	1.6683352597e+01
0.79044233        	1.7138316224e+01
0.79373808        	1.8135438205e+01
0.79703383        	1.9624213449e+01
0.80032336        	2.1513686622e+01
0.80354041        	2.3673350072e+01
0.80672241        	2.6055944022e+01
0.80986633        	2.8563148564e+01
0.81297369        	3.1082944396e+01
0.81605004        	3.3530621205e+01
0.81910293        	3.5841865457e+01
0.82213924        	3.7964879529e+01
0.82516497        	3.9867887355e+01
0.82818064        	4.1553273143e+01
0.83118522        	4.3063386104e+01
0.83417248        	4.4452996683e+01
0.83713718        	4.5773543163e+01
0.84007796        	4.7068049581e+01
0.8429962         	4.8368661785e+01
0.84589591        	4.9680567141e+01
0.84877903        	5.0968497856e+01
0.85165048        	5.2162297135e+01
0.8545118         	5.3166051200e+01
0.85736543        	5.3872710528e+01
0.86021623        	5.4179569834e+01
0.86305792        	5.4013728402e+01
0.86589962        	5.3349887516e+01
0.86874132        	5.2208985462e+01
0.87159599        	5.0644654335e+01
0.87445898        	4.8739634036e+01
0.87733653        	4.6576551071e+01
0.88023349        	4.4237754351e+01
0.8831561         	4.1805478891e+01
0.88610901        	3.9360678825e+01
0.88909632        	3.6971825153e+01
0.89211878        	3.4692827756e+01
0.89515002        	3.2580877335e+01
0.89818126        	3.0664760901e+01
0.90123291        	2.8936778282e+01
0.90432477        	2.7370109480e+01
0.90743349        	2.5942582432e+01
0.9105638         	2.4616970423e+01
0.91371924        	2.3353673014e+01
0.91690145        	2.2126343555e+01
0.92010913        	2.0936130855e+01
0.92333948        	1.9805865928e+01
0.92658759        	1.8800812353e+01
0.92984754        	1.8016322031e+01
0.93311472        	1.7555024307e+01
0.93638415        	1.7522008971e+01
0.93964476        	1.7973554909e+01
0.94289392        	1.8915919367e+01
0.94612787        	2.0306883565e+01
0.94934685        	2.2065424198e+01
0.95254699        	2.4106509293e+01
0.95572295        	2.6316735808e+01
0.9588712         	2.8566090207e+01
0.96198784        	3.0757656643e+01
0.96507476        	3.2839871840e+01
0.96813335        	3.4786888953e+01
0.97117163        	3.6596844315e+01
0.97419248        	3.8282798671e+01
0.97720247        	3.9871772524e+01
0.98020214        	4.1388223760e+01
0.98318321        	4.2842448616e+01
0.98615964        	4.4250677664e+01
0.98910439        	4.5615479487e+01
0.99204915        	4.6958686157e+01
0.99499391        	4.8270244620e+01
0.99793867        	4.9517145509e+01
1.000861          	5.0632172108e+01
1.0037225         	5.1528149477e+01
1.0065741         	5.2140528436e+01
1.0094225         	5.2391537266e+01
1.012272          	5.2224929575e+01
1.0151275         	5.1612925323e+01
1.0179924         	5.0562800744e+01
1.0208674         	4.9110211257e+01
1.0237537         	4.7320657787e+01
1.0266523         	4.5294299328e+01
1.0295672         	4.3123989541e+01
1.0325023         	4.0902233932e+01
1.035461          	3.8712216701e+01
1.0384467         	3.6611494388e+01
1.0414602         	3.4633664238e+01
1.0444995         	3.2789564853e+01
1.0475618         	3.1070430837e+01
1.0506434         	2.9456719900e+01
1.0537429         	2.7927493060e+01
1.0568581         	2.6472320649e+01
1.0599902         	2.5085804970e+01
1.0631415         	2.3762092231e+01
1.0663138         	2.2507057445e+01
1.069511          	2.1338156809e+01
1.072731          	2.0288533730e+01
1.075973          	1.9413859254e+01
1.0792349         	1.8783911200e+01
1.082505          	1.8483374943e+01
1.0857751         	1.8580870340e+01
1.0890261         	1.9110614819e+01
1.0922537         	2.0075645139e+01
1.0954813         	2.1446082003e+01
1.098709          	2.3164217163e+01
1.1019073         	2.5115098537e+01
1.1050699         	2.7164932905e+01
1.1082101         	2.9210140967e+01
1.1113254         	3.1173457145e+01
1.1144136         	3.3013541723e+01
1.1174765         	3.4726650644e+01
1.1205176         	3.6337281708e+01
1.1235399         	3.7878847183e+01
1.1265471         	3.9378826084e+01
1.1295405         	4.0851788454e+01
1.1325213         	4.2298517850e+01
1.1354896         	4.3715871728e+01
1.1384446         	4.5097169435e+01
1.1413834         	4.6425848700e+01
1.1443038         	4.7675285369e+01
1.1472045         	4.8807667433e+01
1.1500866         	4.9773798926e+01
1.152953          	5.0515873619e+01
1.155813          	5.0974068676e+01
1.1586662         	5.1093195146e+01
1.1615266         	5.0835361236e+01
1.1643942         	5.0183006586e+01
1.1672729         	4.9143307941e+01
1.170163          	4.7751504544e+01
1.1730651         	4.6069420791e+01
1.1759796         	4.4179811375e+01
1.1789089         	4.2176719602e+01
1.1818578         	4.0149894094e+01
1.1848256         	3.8173416187e+01
1.1878143         	3.6292985174e+01
1.1908231         	3.4527718797e+01
1.193857          	3.2868294161e+01
1.1969285         	3.1285844069e+01
1.2               	2.9774097460e+01
