# Region type :   sampledSurface planeZ6p
# Faces           : 676
# Area            : 8.2953449955e-02
# Scale factor    : 1.0000000000e+00
# Time            	areaAverage(p_rgh)
0.0022299561      	6.8999999853e+06
0.013080419       	6.8999923267e+06
0.017552985       	6.8999400942e+06
0.019466303       	6.8998932389e+06
0.020990287       	6.8998574576e+06
0.022482072       	6.8998558085e+06
0.024094946       	6.8999615110e+06
0.025835526       	6.9003505329e+06
0.027602559       	6.9013349021e+06
0.02934207        	6.9034849205e+06
0.031049943       	6.9078881099e+06
0.032731382       	6.9161814811e+06
0.034394951       	6.9298679067e+06
0.036037776       	6.9487188017e+06
0.037649442       	6.9694373017e+06
0.039239911       	6.9864095263e+06
0.040876205       	6.9939599332e+06
0.042757318       	6.9869449297e+06
0.045459969       	6.9572214949e+06
0.049225918       	6.9112138474e+06
0.052948587       	6.8943043092e+06
0.057086195       	6.9064536085e+06
0.062225413       	6.9230970460e+06
0.065986944       	6.9322615905e+06
0.069001108       	6.9320868202e+06
0.07176608        	6.9217491015e+06
0.07404263        	6.9092744897e+06
0.076010072       	6.8996945710e+06
0.077846569       	6.8931943687e+06
0.079637111       	6.8900346543e+06
0.081473981       	6.8914685975e+06
0.083404118       	6.8978092592e+06
0.08550048        	6.9055250564e+06
0.087783648       	6.9080860541e+06
0.090132946       	6.9034694548e+06
0.092467959       	6.8962471449e+06
0.094707433       	6.8906515767e+06
0.096825701       	6.8886154236e+06
0.098813368       	6.8899598536e+06
0.10061653        	6.8919784876e+06
0.10231391        	6.8924720374e+06
0.10398172        	6.8908945898e+06
0.10568929        	6.8874841094e+06
0.10748995        	6.8834376508e+06
0.10943357        	6.8811443754e+06
0.11157247        	6.8817762794e+06
0.11392034        	6.8819456256e+06
0.11630985        	6.8786588899e+06
0.11854175        	6.8755961628e+06
0.12060471        	6.8750489563e+06
0.12256415        	6.8763796512e+06
0.12449368        	6.8793126651e+06
0.12645221        	6.8825648754e+06
0.12851315        	6.8826617991e+06
0.13072692        	6.8763165840e+06
0.13310859        	6.8656694860e+06
0.1356166         	6.8585451491e+06
0.13816588        	6.8602484026e+06
0.14066313        	6.8688211236e+06
0.14306608        	6.8790835968e+06
0.14540596        	6.8867137633e+06
0.1477487         	6.8896297327e+06
0.15018158        	6.8884068284e+06
0.15273578        	6.8855862177e+06
0.15536515        	6.8838848338e+06
0.15797524        	6.8847876260e+06
0.16046081        	6.8885440804e+06
0.16285059        	6.8944375793e+06
0.16526502        	6.9011996428e+06
0.167837          	6.9074081974e+06
0.17064912        	6.9105708944e+06
0.17360539        	6.9078400482e+06
0.17642871        	6.9019854178e+06
0.17900077        	6.8988226751e+06
0.18136283        	6.9004054841e+06
0.18363944        	6.9055280521e+06
0.18597014        	6.9119317994e+06
0.18851368        	6.9172423512e+06
0.19128437        	6.9199843867e+06
0.19414195        	6.9214345971e+06
0.19688263        	6.9228927101e+06
0.19938875        	6.9239708654e+06
0.20170995        	6.9247444705e+06
0.2039014         	6.9258484403e+06
0.20607942        	6.9276940861e+06
0.20831922        	6.9300521801e+06
0.21066165        	6.9316717051e+06
0.2130794         	6.9312604418e+06
0.21549037        	6.9293486319e+06
0.21780459        	6.9274938048e+06
0.21998348        	6.9268079851e+06
0.22204586        	6.9270632779e+06
0.22403806        	6.9272119269e+06
0.22600378        	6.9262352319e+06
0.22797409        	6.9233558759e+06
0.22997649        	6.9185082011e+06
0.2320316         	6.9127084499e+06
0.23412839        	6.9073266987e+06
0.23622227        	6.9038393117e+06
0.23827514        	6.9031162707e+06
0.24027125        	6.9042790763e+06
0.24221032        	6.9059172700e+06
0.24410151        	6.9073891242e+06
0.2459644         	6.9079903381e+06
0.24782195        	6.9068607816e+06
0.2496899         	6.9041669703e+06
0.25157411        	6.9009703243e+06
0.25347401        	6.8977812613e+06
0.25538739        	6.8945575798e+06
0.25731376        	6.8919014464e+06
0.25925127        	6.8905187408e+06
0.26120155        	6.8899918260e+06
0.26316544        	6.8893049695e+06
0.2651514         	6.8878546961e+06
0.26716755        	6.8852627179e+06
0.26921124        	6.8812010766e+06
0.27127569        	6.8761409948e+06
0.27334964        	6.8714598008e+06
0.2754236         	6.8682965791e+06
0.27749047        	6.8669121314e+06
0.27954788        	6.8670947919e+06
0.28161556        	6.8685074497e+06
0.28370975        	6.8706290266e+06
0.28585692        	6.8727715487e+06
0.28808497        	6.8742210841e+06
0.29040508        	6.8744245870e+06
0.29280423        	6.8734596953e+06
0.29524347        	6.8724506381e+06
0.29768272        	6.8729637959e+06
0.3001199         	6.8757172176e+06
0.30249099        	6.8798935269e+06
0.30484976        	6.8840998794e+06
0.3072415         	6.8871826016e+06
0.30968408        	6.8886189229e+06
0.3121565         	6.8889690369e+06
0.31461181        	6.8896462121e+06
0.31701307        	6.8916805063e+06
0.31936469        	6.8950490540e+06
0.32171247        	6.8989339778e+06
0.32412423        	6.9021729629e+06
0.32666891        	6.9038991473e+06
0.32937368        	6.9042673070e+06
0.33217434        	6.9047205253e+06
0.33494265        	6.9070079437e+06
0.33759255        	6.9115242866e+06
0.34013065        	6.9171916399e+06
0.34261447        	6.9225428379e+06
0.34509545        	6.9265021083e+06
0.34757107        	6.9287329829e+06
0.35003385        	6.9297192149e+06
0.35246859        	6.9301998203e+06
0.35485767        	6.9307162060e+06
0.35719448        	6.9312993744e+06
0.35948478        	6.9314944071e+06
0.36174135        	6.9307044045e+06
0.36397426        	6.9285517162e+06
0.36618455        	6.9251704859e+06
0.36836729        	6.9212105761e+06
0.37051292        	6.9176806156e+06
0.37261341        	6.9154432243e+06
0.37466704        	6.9146529064e+06
0.37667837        	6.9148459650e+06
0.37865777        	6.9152831842e+06
0.38061458        	6.9152286007e+06
0.38255677        	6.9142537929e+06
0.38449087        	6.9123234139e+06
0.38641747        	6.9097039972e+06
0.38834407        	6.9068196871e+06
0.39027067        	6.9040993718e+06
0.39219727        	6.9018096743e+06
0.39412387        	6.9000369401e+06
0.39605047        	6.8987084832e+06
0.39797707        	6.8976167443e+06
0.39990367        	6.8965129137e+06
0.40183903        	6.8951847244e+06
0.40377408        	6.8934921233e+06
0.40570622        	6.8914169110e+06
0.4076356         	6.8890964109e+06
0.40956428        	6.8868252762e+06
0.41149794        	6.8849309704e+06
0.41344548        	6.8835981445e+06
0.41541852        	6.8827765716e+06
0.41743156        	6.8822022945e+06
0.41949706        	6.8815265804e+06
0.42162625        	6.8804826469e+06
0.42382127        	6.8790925050e+06
0.4260724         	6.8777573252e+06
0.42835955        	6.8771219080e+06
0.43066297        	6.8776943206e+06
0.43297348        	6.8794897857e+06
0.43528003        	6.8819708809e+06
0.43756858        	6.8843466279e+06
0.43987513        	6.8860574659e+06
0.44222718        	6.8869734485e+06
0.44463076        	6.8874978325e+06
0.44706875        	6.8883427860e+06
0.44951501        	6.8899573167e+06
0.45195172        	6.8921513244e+06
0.45437496        	6.8942410716e+06
0.45679969        	6.8956071446e+06
0.45924518        	6.8962706479e+06
0.46172421        	6.8969354805e+06
0.46423689        	6.8984073572e+06
0.46677169        	6.9010456603e+06
0.46931949        	6.9046416078e+06
0.47188071        	6.9086752862e+06
0.47446632        	6.9125178138e+06
0.47709066        	6.9155900397e+06
0.47971959        	6.9175624496e+06
0.48231633        	6.9186901923e+06
0.48486604        	6.9196875624e+06
0.48736083        	6.9211749016e+06
0.48979185        	6.9231537239e+06
0.49215795        	6.9249959534e+06
0.49447099        	6.9258888617e+06
0.49672773        	6.9254347637e+06
0.49898447        	6.9238723212e+06
0.5011914         	6.9218945837e+06
0.50333364        	6.9201665950e+06
0.50545102        	6.9188830496e+06
0.50755007        	6.9178605098e+06
0.50963517        	6.9167249297e+06
0.511707          	6.9152063728e+06
0.5137611         	6.9132215727e+06
0.51579053        	6.9108950329e+06
0.51779055        	6.9086810229e+06
0.51975897        	6.9069236218e+06
0.52169802        	6.9057051594e+06
0.5236136         	6.9049551400e+06
0.52551313        	6.9043631818e+06
0.52740448        	6.9035689033e+06
0.5292955         	6.9024058647e+06
0.53119199        	6.9008670860e+06
0.53309782        	6.8990266981e+06
0.53501527        	6.8969824420e+06
0.53694481        	6.8948114738e+06
0.53888697        	6.8925608518e+06
0.54084015        	6.8902956787e+06
0.54280321        	6.8881218054e+06
0.54477625        	6.8861849378e+06
0.54676066        	6.8846107181e+06
0.54875925        	6.8834159835e+06
0.55077716        	6.8825055622e+06
0.5528194         	6.8817288572e+06
0.55489127        	6.8810001579e+06
0.55699629        	6.8804036521e+06
0.55913829        	6.8801451891e+06
0.56131948        	6.8804034173e+06
0.56354429        	6.8811884986e+06
0.56581919        	6.8823019996e+06
0.56815242        	6.8834142545e+06
0.5705412         	6.8842427806e+06
0.57295718        	6.8847572710e+06
0.57538254        	6.8852665859e+06
0.57779861        	6.8861940765e+06
0.58018726        	6.8877369141e+06
0.58255046        	6.8897055818e+06
0.58489407        	6.8916609380e+06
0.58724126        	6.8932265230e+06
0.58961393        	6.8943334188e+06
0.59202243        	6.8953327193e+06
0.5944849         	6.8967614098e+06
0.59699176        	6.8988720501e+06
0.59949863        	6.9014234124e+06
0.60207178        	6.9040937168e+06
0.60468331        	6.9066497051e+06
0.60731116        	6.9090434451e+06
0.60994437        	6.9113086606e+06
0.61256175        	6.9135478339e+06
0.61513235        	6.9158193117e+06
0.61765557        	6.9181045279e+06
0.62013063        	6.9202770886e+06
0.62255774        	6.9220823216e+06
0.6249384         	6.9232268114e+06
0.62727479        	6.9234820253e+06
0.62956972        	6.9229124447e+06
0.63182604        	6.9218490787e+06
0.63404636        	6.9206347620e+06
0.6362312         	6.9194872508e+06
0.6383825         	6.9184370463e+06
0.64050272        	6.9173586590e+06
0.64259407        	6.9160990452e+06
0.64465816        	6.9145906045e+06
0.64669489        	6.9129309880e+06
0.64870361        	6.9113371605e+06
0.65068806        	6.9099931959e+06
0.65265198        	6.9089541730e+06
0.65459998        	6.9080887251e+06
0.65653657        	6.9071830557e+06
0.65846608        	6.9060376830e+06
0.66039226        	6.9045270677e+06
0.66231496        	6.9026597154e+06
0.66423767        	6.9005384903e+06
0.66616037        	6.8983069335e+06
0.66808308        	6.8961076112e+06
0.6700116         	6.8940198142e+06
0.67194363        	6.8920627959e+06
0.67388032        	6.8902374394e+06
0.67582534        	6.8885555637e+06
0.67778143        	6.8870298418e+06
0.67975268        	6.8856656919e+06
0.68174286        	6.8844614875e+06
0.68375563        	6.8834057414e+06
0.68579508        	6.8825161076e+06
0.6878651         	6.8818329103e+06
0.68997017        	6.8814017036e+06
0.69211703        	6.8812797110e+06
0.69430546        	6.8814916875e+06
0.69653861        	6.8819815332e+06
0.69884048        	6.8826388688e+06
0.70117706        	6.8833583479e+06
0.7035571         	6.8841444693e+06
0.70593176        	6.8850651280e+06
0.70829301        	6.8861729547e+06
0.71064172        	6.8874404000e+06
0.71298708        	6.8887741823e+06
0.71533997        	6.8900547349e+06
0.71771236        	6.8912015780e+06
0.72011177        	6.8922911929e+06
0.72254071        	6.8934863566e+06
0.72499775        	6.8949588549e+06
0.72747894        	6.8968212544e+06
0.72998263        	6.8990314700e+06
0.73251006        	6.9014099370e+06
0.73506404        	6.9037860307e+06
0.73764568        	6.9061411420e+06
0.7402518         	6.9085571929e+06
0.74287123        	6.9110649042e+06
0.74549088        	6.9135871698e+06
0.74807916        	6.9159547811e+06
0.75061836        	6.9179666041e+06
0.75310355        	6.9194968018e+06
0.75553462        	6.9205440261e+06
0.757914          	6.9211396234e+06
0.76024627        	6.9213335967e+06
0.76253557        	6.9211913743e+06
0.76478707        	6.9207786192e+06
0.7670035         	6.9201452170e+06
0.76918693        	6.9192959876e+06
0.77133911        	6.9182354559e+06
0.77346102        	6.9169936044e+06
0.77555491        	6.9156134748e+06
0.77762225        	6.9141634079e+06
0.77966413        	6.9127504445e+06
0.78167972        	6.9114613782e+06
0.78367398        	6.9103169563e+06
0.78564899        	6.9092663479e+06
0.78760906        	6.9082047579e+06
0.78955775        	6.9070325758e+06
0.7914915         	6.9056754792e+06
0.79342525        	6.9040802487e+06
0.795359          	6.9022556570e+06
0.79729275        	6.9002389483e+06
0.7992265         	6.8981103871e+06
0.8011533         	6.8959739020e+06
0.80308043        	6.8938863684e+06
0.8050145         	6.8918916533e+06
0.80695808        	6.8900157360e+06
0.80891383        	6.8882771830e+06
0.81088364        	6.8867013207e+06
0.81286903        	6.8853009501e+06
0.81487132        	6.8841157561e+06
0.81689312        	6.8831900124e+06
0.8189377         	6.8825325745e+06
0.82101015        	6.8821355433e+06
0.82311648        	6.8819510473e+06
0.82526314        	6.8819516020e+06
0.82745614        	6.8821394796e+06
0.82970036        	6.8825100609e+06
0.83199679        	6.8830621277e+06
0.83434391        	6.8838009395e+06
0.83671691        	6.8847108694e+06
0.83907881        	6.8857230732e+06
0.84142979        	6.8867475678e+06
0.84377396        	6.8877211302e+06
0.84612217        	6.8886581780e+06
0.84848304        	6.8896286726e+06
0.85086332        	6.8907481900e+06
0.8532669         	6.8921173107e+06
0.85569548        	6.8937151156e+06
0.85814893        	6.8954652033e+06
0.86062892        	6.8973567533e+06
0.86313738        	6.8994244499e+06
0.86567653        	6.9016463187e+06
0.86824701        	6.9039723707e+06
0.87084414        	6.9063983873e+06
0.87345848        	6.9089327044e+06
0.87607341        	6.9114989711e+06
0.87868447        	6.9139651563e+06
0.88125473        	6.9161401196e+06
0.88377148        	6.9178676781e+06
0.88623567        	6.9191230626e+06
0.88864904        	6.9199895608e+06
0.89102013        	6.9205319514e+06
0.89334868        	6.9207651356e+06
0.89564224        	6.9206609963e+06
0.8979358         	6.9201953310e+06
0.90022075        	6.9194066021e+06
0.90240881        	6.9184390595e+06
0.90456163        	6.9173541459e+06
0.90668158        	6.9162143219e+06
0.90877045        	6.9150658742e+06
0.91083067        	6.9139411629e+06
0.9128648         	6.9128620179e+06
0.91487617        	6.9117528240e+06
0.91686848        	6.9106112330e+06
0.91884434        	6.9094706934e+06
0.92080624        	6.9082447743e+06
0.92275667        	6.9069350586e+06
0.92469791        	6.9054952870e+06
0.92663131        	6.9038120188e+06
0.92855875        	6.9018656092e+06
0.93048295        	6.8997247211e+06
0.93240731        	6.8974887530e+06
0.9343347         	6.8952780229e+06
0.93626662        	6.8931852951e+06
0.93820458        	6.8912484399e+06
0.94015173        	6.8894708183e+06
0.94211051        	6.8878624159e+06
0.94408282        	6.8864485947e+06
0.94607021        	6.8852603352e+06
0.94807517        	6.8842998595e+06
0.95010088        	6.8835496951e+06
0.9521516         	6.8829849829e+06
0.95423316        	6.8825730824e+06
0.95635188        	6.8823175430e+06
0.95851393        	6.8822611274e+06
0.9607235         	6.8824452076e+06
0.96298296        	6.8828824811e+06
0.96529099        	6.8835489626e+06
0.96764342        	6.8843930565e+06
0.97000162        	6.8853217163e+06
0.97234785        	6.8862351591e+06
0.97468415        	6.8870796203e+06
0.97701741        	6.8878780260e+06
0.97936336        	6.8887173081e+06
0.98172834        	6.8897035167e+06
0.98411754        	6.8909392728e+06
0.98653482        	6.8924272245e+06
0.98897929        	6.8940381098e+06
0.99145139        	6.8957107278e+06
0.99394093        	6.8975438470e+06
0.99646554        	6.8996624174e+06
0.99899016        	6.9019939678e+06
1.0015459         	6.9044475383e+06
1.0041403         	6.9069875525e+06
1.0067499         	6.9095692813e+06
1.0093617         	6.9120738813e+06
1.0119615         	6.9143668510e+06
1.0145176         	6.9162753760e+06
1.0170217         	6.9177270427e+06
1.0194753         	6.9187813230e+06
1.0218812         	6.9195182895e+06
1.0242443         	6.9199699377e+06
1.0265683         	6.9201027294e+06
1.0288558         	6.9199045518e+06
1.0311085         	6.9194159156e+06
1.0333263         	6.9187110609e+06
1.0355094         	6.9178657128e+06
1.0376578         	6.9169494142e+06
1.039774          	6.9159960481e+06
1.0418609         	6.9149950791e+06
1.0439219         	6.9139396860e+06
1.0459593         	6.9128439803e+06
1.0479742         	6.9117290101e+06
1.0499706         	6.9106034644e+06
1.0519509         	6.9094511031e+06
1.0539168         	6.9082385995e+06
1.0558703         	6.9069064459e+06
1.0578136         	6.9053824860e+06
1.0597492         	6.9036143261e+06
1.0616789         	6.9015934801e+06
1.0636046         	6.8993843528e+06
1.0655308         	6.8971022190e+06
1.0674619         	6.8948705620e+06
1.0693973         	6.8927735600e+06
1.0713401         	6.8908431452e+06
1.0732929         	6.8891041406e+06
1.0752579         	6.8875826757e+06
1.0772363         	6.8862926174e+06
1.0792303         	6.8852253252e+06
1.0812422         	6.8843488284e+06
1.0832748         	6.8836447444e+06
1.0853332         	6.8831142416e+06
1.0874232         	6.8827676090e+06
1.0895506         	6.8826192247e+06
1.0917188         	6.8826859363e+06
1.0939371         	6.8829849740e+06
1.0962022         	6.8835003543e+06
1.0985039         	6.8841746461e+06
1.1008266         	6.8849291709e+06
1.1031805         	6.8857098047e+06
1.1055234         	6.8864563396e+06
1.1078596         	6.8871723419e+06
1.110196          	6.8879205071e+06
1.1125426         	6.8887879996e+06
1.1149095         	6.8898325458e+06
1.1173027         	6.8910822838e+06
1.119725          	6.8925414961e+06
1.1221758         	6.8941200510e+06
1.1246538         	6.8958332975e+06
1.1271574         	6.8977805096e+06
1.1296855         	6.9000103374e+06
1.1322398         	6.9024369573e+06
1.1348188         	6.9049417211e+06
1.1374179         	6.9074785575e+06
1.1400255         	6.9099839869e+06
1.1426301         	6.9123523192e+06
1.1452156         	6.9144720405e+06
1.1477563         	6.9162361516e+06
1.1502465         	6.9176003590e+06
1.1526881         	6.9185774803e+06
1.1550864         	6.9192063340e+06
1.1574441         	6.9195002307e+06
1.1597651         	6.9194873600e+06
1.1620512         	6.9192091865e+06
1.1643031         	6.9187204911e+06
1.16652           	6.9180852858e+06
1.1687011         	6.9173533881e+06
1.1708479         	6.9165593990e+06
1.1729627         	6.9157090798e+06
1.1750486         	6.9147869776e+06
1.1771091         	6.9137972410e+06
1.1791449         	6.9127705889e+06
1.1811601         	6.9117301759e+06
1.1831577         	6.9106703091e+06
1.1851402         	6.9095495095e+06
1.1871084         	6.9083150078e+06
1.1890642         	6.9069033734e+06
1.1910171         	6.9052494597e+06
1.1929551         	6.9033512665e+06
1.1948852         	6.9012199313e+06
1.1968153         	6.8989343751e+06
1.1987454         	6.8966243897e+06
