# Region type :   patch main_inlet
# Faces           : 348
# Area            : 8.2964479394e-02
# Scale factor    : 1.0000000000e+00
# Time            	areaAverage(p_rgh)
0.0022270965      	6.9448873713e+06
0.0102236         	6.9457106100e+06
0.015156694       	6.9469559502e+06
0.019678603       	6.9499111321e+06
0.02411605        	6.9513401609e+06
0.028161927       	6.9522033306e+06
0.032114665       	6.9517042752e+06
0.035709071       	6.9513466663e+06
0.039030921       	6.9512059583e+06
0.042308829       	6.9510915397e+06
0.045544774       	6.9514395302e+06
0.048709914       	6.9520084167e+06
0.051834537       	6.9522733350e+06
0.054872027       	6.9522717028e+06
0.057795007       	6.9523336418e+06
0.060656031       	6.9524104748e+06
0.063485137       	6.9523640325e+06
0.066262827       	6.9521503295e+06
0.068977366       	6.9514108563e+06
0.07162634        	6.9492983735e+06
0.07420486        	6.9445278511e+06
0.076724511       	6.9354679324e+06
0.079216311       	6.9208827706e+06
0.08169188        	6.9017995712e+06
0.084154626       	6.8824294791e+06
0.086611273       	6.8681435197e+06
0.089046509       	6.8616250645e+06
0.09145939        	6.8605671592e+06
0.093834264       	6.8606685377e+06
0.096163852       	6.8598203132e+06
0.09848879        	6.8582849116e+06
0.10080013        	6.8567074776e+06
0.10308334        	6.8553694226e+06
0.10536858        	6.8544072652e+06
0.10765158        	6.8539201969e+06
0.10992726        	6.8538846076e+06
0.11219464        	6.8541860981e+06
0.11445414        	6.8546493888e+06
0.11670681        	6.8550914562e+06
0.11895798        	6.8554021880e+06
0.1212074         	6.8555566911e+06
0.12345411        	6.8555788975e+06
0.1256967         	6.8555238697e+06
0.12793338        	6.8554543560e+06
0.13016451        	6.8553967540e+06
0.13239212        	6.8553352358e+06
0.13461973        	6.8552297103e+06
0.13684734        	6.8550335466e+06
0.13907494        	6.8547411810e+06
0.14130255        	6.8544308118e+06
0.1435338         	6.8542545802e+06
0.14577439        	6.8544355679e+06
0.14803063        	6.8553132663e+06
0.15030541        	6.8574115714e+06
0.15259691        	6.8614809259e+06
0.15489977        	6.8683846738e+06
0.15720669        	6.8787073996e+06
0.1595136         	6.8921800045e+06
0.16182052        	6.9072426620e+06
0.16412744        	6.9212897641e+06
0.16643435        	6.9318839312e+06
0.16874885        	6.9381142036e+06
0.17107162        	6.9408567312e+06
0.17340657        	6.9419411490e+06
0.17575017        	6.9428884211e+06
0.17810452        	6.9442673655e+06
0.18045888        	6.9458874572e+06
0.18281323        	6.9473640414e+06
0.18515368        	6.9484249538e+06
0.18748853        	6.9489564601e+06
0.18980547        	6.9489557037e+06
0.19212241        	6.9485315368e+06
0.19440577        	6.9478811744e+06
0.19668913        	6.9471953494e+06
0.19897249        	6.9466107591e+06
0.2012095         	6.9461840899e+06
0.20337172        	6.9458958484e+06
0.20547616        	6.9457027996e+06
0.20750933        	6.9455815089e+06
0.20945695        	6.9455339344e+06
0.21130818        	6.9455839374e+06
0.21305837        	6.9457608349e+06
0.21470953        	6.9460772403e+06
0.21626976        	6.9465227602e+06
0.21775093        	6.9470789001e+06
0.21916667        	6.9477216023e+06
0.22052934        	6.9484152285e+06
0.22184955        	6.9491105298e+06
0.22313516        	6.9497418227e+06
0.22439294        	6.9502311191e+06
0.22562792        	6.9504959999e+06
0.22684511        	6.9504568511e+06
0.22804835        	6.9500376559e+06
0.22924101        	6.9491638203e+06
0.23042624        	6.9477611482e+06
0.2316067         	6.9457591102e+06
0.23278508        	6.9430957648e+06
0.23396419        	6.9397241134e+06
0.23514658        	6.9356207350e+06
0.2363344         	6.9307943075e+06
0.23752952        	6.9252943682e+06
0.23873346        	6.9192223517e+06
0.23994754        	6.9127368493e+06
0.24117271        	6.9060522991e+06
0.24240961        	6.8994249355e+06
0.24365871        	6.8931257769e+06
0.24491969        	6.8874108528e+06
0.24619224        	6.8824824341e+06
0.24747572        	6.8784579802e+06
0.24876939        	6.8753475216e+06
0.25007268        	6.8730546105e+06
0.2513853         	6.8714024928e+06
0.25270712        	6.8701765611e+06
0.25403796        	6.8691711044e+06
0.2553785         	6.8682259531e+06
0.25672991        	6.8672460474e+06
0.25809369        	6.8662009456e+06
0.25947148        	6.8651097769e+06
0.26086529        	6.8640207518e+06
0.2622767         	6.8629928147e+06
0.26370752        	6.8620811017e+06
0.26515866        	6.8613285684e+06
0.26663128        	6.8607578855e+06
0.26812514        	6.8603661796e+06
0.26964012        	6.8601228786e+06
0.27117618        	6.8599731734e+06
0.27273295        	6.8598462576e+06
0.27431022        	6.8596709257e+06
0.27590758        	6.8593957334e+06
0.27752558        	6.8590051304e+06
0.27916334        	6.8585227142e+06
0.28082095        	6.8579953020e+06
0.28249773        	6.8574689931e+06
0.28419272        	6.8569700248e+06
0.28590558        	6.8564972785e+06
0.28763367        	6.8560258479e+06
0.28937751        	6.8555140232e+06
0.29113416        	6.8549174086e+06
0.29290733        	6.8541996222e+06
0.29469847        	6.8533478268e+06
0.2964956         	6.8523903705e+06
0.29834002        	6.8513681964e+06
0.30018753        	6.8504180543e+06
0.30208276        	6.8496896202e+06
0.30401868        	6.8494310967e+06
0.30599956        	6.8499577301e+06
0.30802799        	6.8516502752e+06
0.31010023        	6.8549147296e+06
0.31220686        	6.8600850237e+06
0.31433369        	6.8672749909e+06
0.31646721        	6.8762451549e+06
0.31859664        	6.8863494027e+06
0.32072065        	6.8966670085e+06
0.32284427        	6.9062055949e+06
0.32497644        	6.9141694005e+06
0.32712733        	6.9201812142e+06
0.32930509        	6.9243598239e+06
0.33151468        	6.9272079480e+06
0.33375329        	6.9293448042e+06
0.33601049        	6.9312294716e+06
0.33826936        	6.9330234480e+06
0.34051216        	6.9346590341e+06
0.34272632        	6.9360087910e+06
0.34490717        	6.9370115030e+06
0.34705572        	6.9377032518e+06
0.34917588        	6.9381927956e+06
0.3512716         	6.9386185950e+06
0.35334546        	6.9391016270e+06
0.35540015        	6.9397075105e+06
0.35743679        	6.9404326608e+06
0.35945699        	6.9412261326e+06
0.36146248        	6.9420295741e+06
0.36345528        	6.9428108805e+06
0.36543673        	6.9435767181e+06
0.36740745        	6.9443646271e+06
0.36936753        	6.9452223661e+06
0.37131511        	6.9461823237e+06
0.37324723        	6.9472405671e+06
0.3751603         	6.9483478094e+06
0.37705041        	6.9494108303e+06
0.37891286        	6.9502993888e+06
0.38074611        	6.9508599536e+06
0.38254932        	6.9509284497e+06
0.38432276        	6.9503453172e+06
0.38606859        	6.9489684176e+06
0.38779076        	6.9466840288e+06
0.38949257        	6.9434218698e+06
0.39117862        	6.9391651364e+06
0.39285888        	6.9339451800e+06
0.39452359        	6.9279340337e+06
0.39618311        	6.9213183076e+06
0.39784263        	6.9143627247e+06
0.39950214        	6.9073964926e+06
0.40115688        	6.9007731939e+06
0.40280384        	6.8947891130e+06
0.40444232        	6.8896375311e+06
0.40607061        	6.8853969998e+06
0.40768755        	6.8820269172e+06
0.40929324        	6.8793964462e+06
0.4108882         	6.8773304480e+06
0.41247408        	6.8756536515e+06
0.41405303        	6.8742250314e+06
0.41562765        	6.8729534461e+06
0.41720029        	6.8717978162e+06
0.41877384        	6.8707526354e+06
0.42035045        	6.8698311381e+06
0.4219316         	6.8690481994e+06
0.42351846        	6.8684065863e+06
0.42511169        	6.8678899952e+06
0.42671146        	6.8674636765e+06
0.42831781        	6.8670796005e+06
0.42993049        	6.8666855685e+06
0.4315494         	6.8662366912e+06
0.43317446        	6.8657041285e+06
0.43480548        	6.8650793747e+06
0.43644243        	6.8643725993e+06
0.43808498        	6.8636054982e+06
0.43973288        	6.8628015153e+06
0.44138576        	6.8619776502e+06
0.44304319        	6.8611399059e+06
0.44470534        	6.8602825907e+06
0.4463725         	6.8593928830e+06
0.44804539        	6.8584582072e+06
0.44972505        	6.8574744730e+06
0.4514136         	6.8564536090e+06
0.45311355        	6.8554303398e+06
0.45482813        	6.8544666539e+06
0.45656066        	6.8536550744e+06
0.45831471        	6.8531199184e+06
0.46009312        	6.8530164321e+06
0.46189849        	6.8535254379e+06
0.4637321         	6.8548416847e+06
0.46559319        	6.8571514511e+06
0.46747795        	6.8605959274e+06
0.46938166        	6.8652312079e+06
0.4712987         	6.8709893722e+06
0.47322436        	6.8776601688e+06
0.47515564        	6.8849021127e+06
0.47708946        	6.8922789529e+06
0.47903103        	6.8993639936e+06
0.4809818         	6.9057735130e+06
0.48294625        	6.9112599251e+06
0.48492675        	6.9157332990e+06
0.48692831        	6.9192655306e+06
0.48894856        	6.9220264294e+06
0.49098281        	6.9242280880e+06
0.49303218        	6.9260590066e+06
0.49508154        	6.9276227108e+06
0.4971309         	6.9289655897e+06
0.49918026        	6.9300927723e+06
0.50120481        	6.9309989905e+06
0.50319902        	6.9317191383e+06
0.50517652        	6.9323213229e+06
0.50713838        	6.9328794893e+06
0.50908635        	6.9334603687e+06
0.51102178        	6.9341073578e+06
0.51294612        	6.9348371424e+06
0.5148601         	6.9356479976e+06
0.51676476        	6.9365319692e+06
0.51866097        	6.9374776269e+06
0.52054914        	6.9384782779e+06
0.52242916        	6.9395340488e+06
0.52430033        	6.9406471241e+06
0.52616172        	6.9418142926e+06
0.52801133        	6.9430152188e+06
0.52984655        	6.9442045223e+06
0.53166535        	6.9453107040e+06
0.53346534        	6.9462396492e+06
0.5352445         	6.9468835527e+06
0.53700206        	6.9471308946e+06
0.53873782        	6.9468753037e+06
0.54045269        	6.9460229357e+06
0.54214804        	6.9444991496e+06
0.54382618        	6.9422545797e+06
0.54548967        	6.9392722629e+06
0.54714133        	6.9355737407e+06
0.54878337        	6.9312250619e+06
0.55041795        	6.9263363386e+06
0.55204677        	6.9210581330e+06
0.55367063        	6.9155736645e+06
0.55528924        	6.9100845146e+06
0.55690259        	6.9047859302e+06
0.55850991        	6.8998484234e+06
0.5601101         	6.8953979152e+06
0.56170278        	6.8915019385e+06
0.56328738        	6.8881717784e+06
0.56486383        	6.8853701974e+06
0.56643305        	6.8830269211e+06
0.5679959         	6.8810591238e+06
0.56955401        	6.8793859587e+06
0.57110833        	6.8779415000e+06
0.57266165        	6.8766775199e+06
0.57421496        	6.8755656670e+06
0.57576999        	6.8745901847e+06
0.57732819        	6.8737421134e+06
0.57889126        	6.8730121750e+06
0.58045903        	6.8723863233e+06
0.58203188        	6.8718425270e+06
0.58360953        	6.8713530113e+06
0.58519315        	6.8708864557e+06
0.58678293        	6.8704131531e+06
0.58837535        	6.8699101960e+06
0.58997526        	6.8693595361e+06
0.59157922        	6.8687530576e+06
0.59318318        	6.8680885540e+06
0.59478714        	6.8673660443e+06
0.5963911         	6.8665871848e+06
0.59799505        	6.8657535870e+06
0.59959901        	6.8648663749e+06
0.6012229         	6.8639150877e+06
0.6028585         	6.8629077488e+06
0.6045011         	6.8618585436e+06
0.60615193        	6.8607910481e+06
0.60781292        	6.8597447007e+06
0.60948598        	6.8587782815e+06
0.61117324        	6.8579713502e+06
0.61287677        	6.8574226085e+06
0.61459857        	6.8572456665e+06
0.61633985        	6.8575635825e+06
0.61810112        	6.8585014852e+06
0.61988238        	6.8601710995e+06
0.62168175        	6.8626543597e+06
0.62349747        	6.8659877166e+06
0.62532674        	6.8701422183e+06
0.6271666         	6.8750144050e+06
0.6290152         	6.8804317765e+06
0.63087116        	6.8861663093e+06
0.63273438        	6.8919635196e+06
0.63460603        	6.8975753438e+06
0.63648698        	6.9027880573e+06
0.63837928        	6.9074539590e+06
0.64028402        	6.9114994730e+06
0.64220145        	6.9149245955e+06
0.64413055        	6.9177847458e+06
0.64606916        	6.9201646276e+06
0.64801316        	6.9221506589e+06
0.64995786        	6.9238130785e+06
0.6518997         	6.9252010476e+06
0.65383449        	6.9263468869e+06
0.65575939        	6.9272793587e+06
0.65767325        	6.9280335999e+06
0.6595755         	6.9286545513e+06
0.66146619        	6.9291939086e+06
0.66334603        	6.9297031693e+06
0.66521604        	6.9302269148e+06
0.66707707        	6.9307990304e+06
0.66892946        	6.9314420982e+06
0.67077472        	6.9321695257e+06
0.67261157        	6.9329854981e+06
0.67444134        	6.9338889621e+06
0.67626392        	6.9348738911e+06
0.67807882        	6.9359290714e+06
0.6798855         	6.9370362944e+06
0.68168293        	6.9381672322e+06
0.68346808        	6.9392794139e+06
0.68524116        	6.9403186368e+06
0.68700105        	6.9412167078e+06
0.68874442        	6.9418945491e+06
0.69047232        	6.9422695868e+06
0.69218376        	6.9422585749e+06
0.69388294        	6.9417837124e+06
0.69555885        	6.9407870115e+06
0.69723476        	6.9392070463e+06
0.69891066        	6.9370094521e+06
0.70057343        	6.9342148716e+06
0.70220583        	6.9309057166e+06
0.70383037        	6.9271186913e+06
0.70544822        	6.9229506753e+06
0.70706048        	6.9185205692e+06
0.70866758        	6.9139617999e+06
0.71026954        	6.9094108186e+06
0.71186643        	6.9049939454e+06
0.713458          	6.9008181477e+06
0.71504394        	6.8969646938e+06
0.71662406        	6.8934864396e+06
0.71819837        	6.8904044469e+06
0.71976724        	6.8877107307e+06
0.72133129        	6.8853778700e+06
0.7228914         	6.8833689876e+06
0.72444851        	6.8816442357e+06
0.72600394        	6.8801658799e+06
0.72755848        	6.8789016129e+06
0.72911411        	6.8778236038e+06
0.73067137        	6.8769097613e+06
0.73223161        	6.8761397076e+06
0.73379527        	6.8754933290e+06
0.7353631         	6.8749478698e+06
0.7369355         	6.8744775318e+06
0.73851253        	6.8740547345e+06
0.74009443        	6.8736513733e+06
0.74168114        	6.8732408606e+06
0.74327262        	6.8728002190e+06
0.7448688         	6.8723111734e+06
0.74646962        	6.8717605245e+06
0.74807524        	6.8711398731e+06
0.74968546        	6.8704452700e+06
0.7513006         	6.8696766960e+06
0.7529207         	6.8688382582e+06
0.75454641        	6.8679382033e+06
0.75617824        	6.8669902940e+06
0.75781695        	6.8660146401e+06
0.75946366        	6.8650394366e+06
0.76111946        	6.8641032372e+06
0.76278574        	6.8632567315e+06
0.76446405        	6.8625630472e+06
0.76615555        	6.8620967832e+06
0.7678622         	6.8619417316e+06
0.76958395        	6.8621877033e+06
0.77132219        	6.8629243911e+06
0.77307661        	6.8642321607e+06
0.77484719        	6.8661721345e+06
0.77663222        	6.8687732320e+06
0.77843029        	6.8720239657e+06
0.78023962        	6.8758652982e+06
0.78205892        	6.8801922075e+06
0.7838875         	6.8848612177e+06
0.78572401        	6.8897003981e+06
0.78756608        	6.8945272788e+06
0.78942189        	6.8991980641e+06
0.79128059        	6.9035481937e+06
0.79315574        	6.9075097821e+06
0.79503088        	6.9109950572e+06
0.79690602        	6.9139989959e+06
0.79878116        	6.9165481430e+06
0.80066667        	6.9186979504e+06
0.80257271        	6.9205023784e+06
0.80447875        	6.9219868019e+06
0.80638193        	6.9231948655e+06
0.80828008        	6.9241675197e+06
0.81017129        	6.9249458577e+06
0.81205446        	6.9255741644e+06
0.81392901        	6.9260986704e+06
0.81579472        	6.9265640519e+06
0.81765209        	6.9270125147e+06
0.81950123        	6.9274818897e+06
0.82134244        	6.9280021688e+06
0.82317635        	6.9285949941e+06
0.82500296        	6.9292727075e+06
0.82682259        	6.9300392561e+06
0.82863523        	6.9308912777e+06
0.83044053        	6.9318185604e+06
0.83223802        	6.9328026242e+06
0.83402696        	6.9338157650e+06
0.83580613        	6.9348199317e+06
0.83757475        	6.9357670475e+06
0.83933168        	6.9365995435e+06
0.84107609        	6.9372527043e+06
0.84280718        	6.9376582018e+06
0.84452463        	6.9377484831e+06
0.84622823        	6.9374615600e+06
0.84791871        	6.9367455181e+06
0.84959653        	6.9355629139e+06
0.85126243        	6.9338943864e+06
0.85291801        	6.9317401015e+06
0.85456404        	6.9291229802e+06
0.85620163        	6.9260878047e+06
0.8578319         	6.9226998928e+06
0.85945559        	6.9190424101e+06
0.86107313        	6.9152108222e+06
0.8626853         	6.9113046384e+06
0.86429192        	6.9074234286e+06
0.8658935         	6.9036566782e+06
0.86748965        	6.9000819250e+06
0.86908091        	6.8967565768e+06
0.87066748        	6.8937193212e+06
0.87224916        	6.8909904096e+06
0.87382634        	6.8885725357e+06
0.87539992        	6.8864550157e+06
0.87697181        	6.8846178635e+06
0.87854093        	6.8830400085e+06
0.88010729        	6.8816965997e+06
0.88167364        	6.8805606459e+06
0.88324           	6.8796083385e+06
0.88481094        	6.8788139424e+06
0.88638493        	6.8781552978e+06
0.88795893        	6.8776091758e+06
0.88953689        	6.8771483220e+06
0.89112221        	6.8767458222e+06
0.89270753        	6.8763774230e+06
0.89429285        	6.8760176947e+06
0.89587817        	6.8756437763e+06
0.89746349        	6.8752361357e+06
0.89904881        	6.8747794185e+06
0.90064335        	6.8742596076e+06
0.90225453        	6.8736661678e+06
0.90387017        	6.8730008514e+06
0.90549037        	6.8722671790e+06
0.90711545        	6.8714730332e+06
0.90874602        	6.8706316048e+06
0.91038259        	6.8697630151e+06
0.91202592        	6.8688945231e+06
0.91367688        	6.8680612296e+06
0.91533649        	6.8673060688e+06
0.91700568        	6.8666810211e+06
0.91868552        	6.8662450415e+06
0.92037698        	6.8660622480e+06
0.92208084        	6.8662004381e+06
0.92379746        	6.8667257945e+06
0.92552713        	6.8676975101e+06
0.92726996        	6.8691616345e+06
0.92902529        	6.8711442248e+06
0.93079243        	6.8736457676e+06
0.9325701         	6.8766363317e+06
0.93435755        	6.8800556254e+06
0.93615405        	6.8838151939e+06
0.93795854        	6.8878036703e+06
0.93977054        	6.8918975883e+06
0.9415902         	6.8959732847e+06
0.9434174         	6.8999154674e+06
0.94525186        	6.9036263407e+06
0.94709357        	6.9070330536e+06
0.94894187        	6.9100891309e+06
0.95079637        	6.9127744988e+06
0.95265542        	6.9150893944e+06
0.95451776        	6.9170513751e+06
0.95638178        	6.9186882773e+06
0.95824539        	6.9200332582e+06
0.96010529        	6.9211220302e+06
0.96196148        	6.9219939263e+06
0.96381201        	6.9226883626e+06
0.9656564         	6.9232467144e+06
0.96749438        	6.9237109742e+06
0.96932485        	6.9241221287e+06
0.97114823        	6.9245181512e+06
0.97296501        	6.9249320083e+06
0.97477481        	6.9253906308e+06
0.97657782        	6.9259141402e+06
0.97837425        	6.9265146884e+06
0.98016432        	6.9271961241e+06
0.98194793        	6.9279543665e+06
0.98372503        	6.9287778506e+06
0.98549405        	6.9296463957e+06
0.98725428        	6.9305319708e+06
0.98900768        	6.9313999329e+06
0.99075249        	6.9322064089e+06
0.99248448        	6.9329007580e+06
0.99421218        	6.9334328390e+06
0.99592261        	6.9337444139e+06
0.99762152        	6.9337853213e+06
0.99932044        	6.9335053314e+06
1.0010058         	6.9328648756e+06
1.0026737         	6.9318407490e+06
1.0043316         	6.9304173066e+06
1.0059803         	6.9285957399e+06
1.0076204         	6.9263938429e+06
1.0092529         	6.9238452036e+06
1.0108784         	6.9209983940e+06
1.0124976         	6.9179151260e+06
1.0141111         	6.9146649748e+06
1.0157192         	6.9113230722e+06
1.0173226         	6.9079651076e+06
1.0189212         	6.9046633001e+06
1.0205154         	6.9014805321e+06
1.0221052         	6.8984694790e+06
1.0236914         	6.8956689575e+06
1.0252738         	6.8931059934e+06
1.0268529         	6.8907949757e+06
1.0284295         	6.8887389732e+06
1.030004          	6.8869332453e+06
1.0315769         	6.8853665530e+06
1.0331499         	6.8840222856e+06
1.0347228         	6.8828825164e+06
1.0362958         	6.8819270400e+06
1.0378705         	6.8811333163e+06
1.0394471         	6.8804787850e+06
1.0410263         	6.8799392084e+06
1.0426085         	6.8794896119e+06
1.044194          	6.8791046628e+06
1.045783          	6.8787592126e+06
1.0473761         	6.8784289523e+06
1.048973          	6.8780915004e+06
1.0505739         	6.8777270308e+06
1.052179          	6.8773192915e+06
1.0537882         	6.8768562016e+06
1.0554022         	6.8763301172e+06
1.0570205         	6.8757389763e+06
1.0586438         	6.8750855653e+06
1.0602723         	6.8743781173e+06
1.0619062         	6.8736305726e+06
1.0635465         	6.8728627183e+06
1.0651936         	6.8721010594e+06
1.066848          	6.8713786939e+06
1.0685106         	6.8707345638e+06
1.0701821         	6.8702137184e+06
1.0718633         	6.8698659836e+06
1.0735548         	6.8697443307e+06
1.0752572         	6.8699022311e+06
1.0769715         	6.8703906717e+06
1.0786973         	6.8712540796e+06
1.0804339         	6.8725255373e+06
1.0821834         	6.8742253925e+06
1.0839433         	6.8763514523e+06
1.0857134         	6.8788817259e+06
1.0874935         	6.8817723063e+06
1.0892802         	6.8849529929e+06
1.0910805         	6.8883564055e+06
1.0928825         	6.8918676928e+06
1.0946844         	6.8953881599e+06
1.0965141         	6.8988797557e+06
1.0983488         	6.9022147039e+06
1.1001837         	6.9053183721e+06
1.1020239         	6.9081517228e+06
1.1038695         	6.9106853390e+06
1.1057194         	6.9129056680e+06
1.1075721         	6.9148140540e+06
1.1094262         	6.9164238936e+06
1.1112803         	6.9177577943e+06
1.1131337         	6.9188448243e+06
1.1149844         	6.9197175822e+06
1.1168315         	6.9204119416e+06
1.1186739         	6.9209661807e+06
1.1205115         	6.9214198283e+06
1.1223433         	6.9218115712e+06
1.1241695         	6.9221777035e+06
1.12599           	6.9225502646e+06
1.1278042         	6.9229561498e+06
1.1296128         	6.9234160787e+06
1.1314153         	6.9239428668e+06
1.1332119         	6.9245415517e+06
1.1350023         	6.9252091627e+06
1.1367861         	6.9259347416e+06
1.1385632         	6.9266997609e+06
1.140333          	6.9274778942e+06
1.142095          	6.9282359335e+06
1.1438488         	6.9289348056e+06
1.1455935         	6.9295310000e+06
1.1473289         	6.9299784857e+06
1.1490548         	6.9302308363e+06
1.1507708         	6.9302438425e+06
1.1524765         	6.9299783560e+06
1.1541725         	6.9294026269e+06
1.155859          	6.9284945063e+06
1.1575364         	6.9272431763e+06
1.1592048         	6.9256506150e+06
1.1608655         	6.9237311916e+06
1.1625184         	6.9215133320e+06
1.1641643         	6.9190368887e+06
1.165804          	6.9163513460e+06
1.1674379         	6.9135137281e+06
1.1690666         	6.9105851708e+06
1.1706898         	6.9076288489e+06
1.1723084         	6.9047027623e+06
1.1739231         	6.9018604640e+06
1.1755328         	6.8991503640e+06
1.1771389         	6.8966073793e+06
1.1787432         	6.8942568546e+06
1.180342          	6.8921218611e+06
1.1819403         	6.8902051723e+06
1.1835385         	6.8885084672e+06
1.1851367         	6.8870276579e+06
1.1867349         	6.8857532201e+06
1.1883331         	6.8846712846e+06
1.1899313         	6.8837646182e+06
1.1915295         	6.8830134463e+06
1.1931277         	6.8823959911e+06
1.1947259         	6.8818887320e+06
1.1963241         	6.8814672284e+06
1.1979223         	6.8811069323e+06
1.1995205         	6.8807836698e+06
